
 Working directory              : /tmp/zwa/molpro.9efsfKRSYZ/
 Global scratch directory       : /tmp/zwa/molpro.9efsfKRSYZ/
 Wavefunction directory         : /home/zwa/wfu/
 Main file repository           : /tmp/zwa/molpro.9efsfKRSYZ/

 id        : liedlgroup

 Nodes     nprocs
 rh2-c724     6
 GA implementation: MPI file
 GA implementation (serial work in mppx): MPI file

 Using customized tuning parameters: mindgm=1; mindgv=20; mindgc=4; mindgr=1; noblas=0; minvec=7
 default implementation of scratch files=sf  


 Variables initialized (1015), CPU time= 0.07 sec
 memory,1000,m
 orient,mass
 geometry = {
  C,                 -0.78481011 ,  -0.36708860  ,  0.00000000
  H,                 -0.25164636 ,  -1.29479352  ,  0.00000000
  H,                 -1.85481011 ,  -0.36708860  ,  0.00000000
  O,                 -0.15776968 ,   0.72396174  ,  0.00000000
 }
 
 mass,iso
 basis=6-311g(d,p)
 {hf
 start,atden}
 {ccsd}
 
 optg
 {frequencies, symm=auto,print=0,analytical}
 put,molden,formaldehydeccsd.molden
 Commands initialized (834), CPU time= 0.05 sec, 672 directives.
 Default parameters read. Elapsed time= 1.29 sec

 Checking input...
 Passed
1


                                         ***  PROGRAM SYSTEM MOLPRO  ***
                                       Copyright, TTI GmbH Stuttgart, 2015
                                    Version 2022.2 linked Thu Sep 29 12:37:28 2022


 **********************************************************************************************************************************
 LABEL *                                                                                 
  (8 PROC) 64 bit mpp version                                                            DATE: 25-Aug-25          TIME: 11:51:33  
 **********************************************************************************************************************************

 SHA1:             51306cdc306ce2a111a2867affebcb289530e0a7
 **********************************************************************************************************************************

 Memory per process:      1000 MW
 Total memory per node:   6000 MW

 GA preallocation disabled
 GA check disabled

 Variable memory set to 1000.0 MW

 ZCENTRE=MASS


 Geometry recognized as XYZ



 Using masses of most abundant isotopes

 **********************************************************************************************************************************
 SETTING BASIS          =    6-311G(D,P)


 Recomputing integrals since basis changed


 Using spherical harmonics

 Library entry C      S 6-311G               selected for orbital group  1
 Library entry C      P 6-311G               selected for orbital group  1
 Library entry C      D 6-311G*              selected for orbital group  1
 Library entry H      S 6-311G               selected for orbital group  2
 Library entry H      P 6-311G**             selected for orbital group  2
 Library entry O      S 6-311G               selected for orbital group  3
 Library entry O      P 6-311G               selected for orbital group  3
 Library entry O      D 6-311G*              selected for orbital group  3


 PROGRAM * SEWARD (Integral evaluation for generally contracted gaussian basis sets)     Author: Roland Lindh, 1990

 Geometry written to block  1 of record 700

 Orientation using atomic masses  
 Molecule type: Asymmetric top
 Symmetry elements: X
 Rotational constants:      32.5062911     36.5731248    292.3297901 GHz

 Point group  Cs  



 ATOMIC COORDINATES

 NR  ATOM    CHARGE       X              Y              Z

   1  C       6.00    0.000000000    0.000065234   -1.199413922
   2  H       1.00    0.000000000    1.747040221   -2.217544819
   3  H       1.00    0.000000000   -1.753157919   -2.206747380
   4  O       8.00    0.000000000    0.000336530    1.178617407

 Bond lengths in Bohr (Angstrom)

 1-2  2.022006956  1-3  2.022006953  1-4  2.378031344
     ( 1.070000001)     ( 1.070000000)     ( 1.258399994)

 Bond angles

  2-1-3  119.88652707   2-1-4  120.22694580   3-1-4  119.88652713

 NUCLEAR CHARGE:                   16
 NUMBER OF PRIMITIVE AOS:          80
 NUMBER OF SYMMETRY AOS:           78
 NUMBER OF CONTRACTIONS:           48   (   36A'  +   12A"  )
 NUMBER OF INNER CORE ORBITALS:     0   (    0A'  +    0A"  )
 NUMBER OF OUTER CORE ORBITALS:     2   (    2A'  +    0A"  )
 NUMBER OF VALENCE ORBITALS:       10   (    8A'  +    2A"  )


 NUCLEAR REPULSION ENERGY   30.59827801

 Eigenvalues of metric

         1 0.150E-01 0.202E-01 0.272E-01 0.310E-01 0.462E-01 0.780E-01 0.980E-01 0.107E+00
         2 0.159E+00 0.211E+00 0.409E+00 0.466E+00 0.498E+00 0.906E+00 0.934E+00 0.999E+00


 Contracted 2-electron integrals neglected if value below      1.0D-11
 AO integral compression algorithm  1   Integral accuracy      1.0D-11

     2.884 MB (compressed) written to integral file ( 79.1%)

     Node minimum: 0.262 MB, node maximum: 0.786 MB


 NUMBER OF SORTED TWO-ELECTRON INTEGRALS:      63816.     BUFFER LENGTH:  32768
 NUMBER OF SEGMENTS:   1  SEGMENT LENGTH:      63816      RECORD LENGTH: 524288

 Memory used in sort:       0.62 MW

 SORT1 READ      497818. AND WROTE       61281. INTEGRALS IN      1 RECORDS. CPU TIME:     0.10 SEC, REAL TIME:     0.24 SEC
 SORT2 READ      366771. AND WROTE      381036. INTEGRALS IN     18 RECORDS. CPU TIME:     0.02 SEC, REAL TIME:     0.04 SEC

 Node minimum:       63196.  Node maximum:       63816. integrals

 OPERATOR DM      FOR CENTER  0  COORDINATES:    0.000000    0.000000    0.000000


 **********************************************************************************************************************************
 DATASETS  * FILE   NREC   LENGTH (MB)   RECORD NAMES
              1      18       28.66       500      610      700      900      950      970     1000      129      960     1100   
                                          VAR    BASINP    GEOM    SYMINP    ZMAT    AOBASIS   BASIS     P2S    ABASIS      S 
                                         1400     1410     1200     1210     1080     1600     1650     1700   
                                           T        V       H0       H01     AOSYM     SMH    MOLCAS    OPER   

 PROGRAMS   *        TOTAL       INT
 CPU TIMES  *         2.51      1.38
 REAL TIME  *         4.68 SEC
 DISK USED  *        28.97 MB (local),      199.62 MB (total)
 GA USED    *         0.00 MB       (max)       0.00 MB       (current)
 **********************************************************************************************************************************


 Program * Restricted Hartree-Fock

 Orbital guess generated from atomic densities.

 Initial occupancy:   7   1

 NELEC=   16   SYM=1   MS2= 0   THRE=1.0D-08   THRD=1.0D-06   THRG=1.0D-06  HFMA2=F  DIIS_START=2   DIIS_MAX=10   DIIS_INCORE=F

 Level shifts:    0.00 (CLOSED)    0.00 (OPEN)    0.30 (GAP_MIN)

 ITER           ETOT              DE          GRAD        DDIFF     DIIS  NEXP   TIME(IT)  TIME(TOT)  DIAG
   1     -113.82981577    -113.82981577     0.00D+00     0.87D-01     0     0       0.02      0.13    start
   2     -113.85214190      -0.02232613     0.17D-01     0.15D-01     1     0       0.07      0.20    diag
   3     -113.88810431      -0.03596241     0.15D-01     0.72D-02     2     0       0.05      0.25    diag
   4     -113.88857643      -0.00047212     0.11D-02     0.10D-02     3     0       0.05      0.30    diag
   5     -113.88864707      -0.00007064     0.40D-03     0.44D-03     4     0       0.03      0.33    diag
   6     -113.88866582      -0.00001875     0.16D-03     0.25D-03     5     0       0.06      0.39    diag
   7     -113.88866879      -0.00000297     0.74D-04     0.12D-03     6     0       0.05      0.44    diag
   8     -113.88866889      -0.00000010     0.15D-04     0.22D-04     7     0       0.04      0.48    fixocc
   9     -113.88866890      -0.00000000     0.20D-05     0.33D-05     8     0       0.05      0.53    diag
  10     -113.88866890      -0.00000000     0.38D-06     0.58D-06     9     0       0.09      0.62    diag/orth
  11     -113.88866890      -0.00000000     0.54D-07     0.59D-07     0     0       0.04      0.66    diag

 Final occupancy:   7   1

 !RHF STATE 1.1 Energy               -113.888668896088
  RHF One-electron energy            -216.079187412599
  RHF Two-electron energy              71.592240509657
  RHF Kinetic energy                  113.686272297225
  RHF Nuclear energy                   30.598278006854
  RHF Virial quotient                  -1.001780308165

 !RHF STATE 1.1 Dipole moment           0.00000000     0.00010602    -1.20446790
 Dipole moment /Debye                   0.00000000     0.00026948    -3.06145204

 Orbital energies:

           1.1          2.1          3.1          4.1          5.1          6.1          7.1          8.1          9.1
    -20.569682   -11.340770    -1.369255    -0.884037    -0.695084    -0.632054    -0.448005     0.157928     0.206075

           1.2          2.2          3.2
     -0.508465     0.114190     0.576933


 HOMO      7.1    -0.448005 =     -12.1908eV
 LUMO      2.2     0.114190 =       3.1073eV
 LUMO-HOMO         0.562195 =      15.2981eV

 Orbitals saved in record  2100.2


 **********************************************************************************************************************************
 DATASETS  * FILE   NREC   LENGTH (MB)   RECORD NAMES
              1      18       28.66       500      610      700      900      950      970     1000      129      960     1100   
                                          VAR    BASINP    GEOM    SYMINP    ZMAT    AOBASIS   BASIS     P2S    ABASIS      S 
                                         1400     1410     1200     1210     1080     1600     1650     1700   
                                           T        V       H0       H01     AOSYM     SMH    MOLCAS    OPER   

              2       4        0.42       700     1000      520     2100   
                                         GEOM     BASIS   MCVARS     RHF  

 PROGRAMS   *        TOTAL    HF-SCF       INT
 CPU TIMES  *         3.19      0.68      1.38
 REAL TIME  *         5.08 SEC
 DISK USED  *        29.23 MB (local),      201.17 MB (total)
 GA USED    *         0.00 MB       (max)       0.00 MB       (current)
 **********************************************************************************************************************************


 PROGRAM * CCSD (Closed-shell coupled cluster)     Authors: C. Hampel, H.-J. Werner, 1991, M. Deegan, P.J. Knowles, 1992


 Convergence thresholds:  THRVAR = 1.00D-12  THRDEN = 1.00D-08

 Using ITF CCSD gradient implementation

 Number of core orbitals:           2 (   2   0 )
 Number of closed-shell orbitals:   6 (   5   1 )
 Number of external orbitals:      40 (  29  11 )

 Molecular orbitals read from record     2100.2  Type=RHF/CANONICAL  

 Integral transformation finished. Total CPU:   8.18 sec, npass=  1  Memory used:   0.26 MW
  Reference energy                   -113.888668896088

  MP2 correlation energy               -0.342241059961
  MP2 total energy                   -114.230909956049

 ITER.      SQ.NORM     CORR.ENERGY   TOTAL ENERGY   ENERGY CHANGE        DEN1      VAR(S)    VAR(P)  DIIS     TIME
   1      1.10706045    -0.35312886  -114.24179775    -0.01088780     0.00291717  3.90e-03  2.52e-03  1  1     4.12
   2      1.11928452    -0.35386626  -114.24253516    -0.00073741    -0.01164138  6.11e-05  5.80e-04  2  2     7.42
   3      1.12329421    -0.35410751  -114.24277641    -0.00024125    -0.00114651  1.33e-05  1.00e-04  3  3    11.48
   4      1.12671291    -0.35415265  -114.24282154    -0.00004513    -0.00147091  5.64e-07  1.78e-05  4  4    15.16
   5      1.12797133    -0.35410955  -114.24277845     0.00004309    -0.00037731  1.10e-07  2.35e-06  5  5    18.99
   6      1.12847781    -0.35410459  -114.24277348     0.00000496    -0.00012652  2.24e-09  8.66e-08  6  0    23.09
   7      1.12851545    -0.35409951  -114.24276841     0.00000508    -0.00001287  2.52e-09  5.88e-09  6  1    27.14
   8      1.12851720    -0.35410008  -114.24276897    -0.00000057    -0.00000081  1.53e-11  4.84e-10  6  2    30.87
   9      1.12851537    -0.35410003  -114.24276893     0.00000005     0.00000015  5.23e-12  6.11e-11  6  3    34.56
  10      1.12851547    -0.35410010  -114.24276900    -0.00000007    -0.00000006  5.55e-14  7.13e-12  6  4    38.45
  11      1.12851541    -0.35410010  -114.24276900    -0.00000000     0.00000001  1.03e-14  1.18e-12  6  5    42.39
  12      1.12851540    -0.35410010  -114.24276900     0.00000000    -0.00000000  1.32e-15  1.35e-13          46.21

 Norm of t1 vector:      0.08883370     S-energy:      0.00000001   T1 diagnostic:  0.01813310

 Time per iteration:                      3.85 sec

 RESULTS
 =======

  Reference energy                   -113.888668896088
  CCSD correlation energy              -0.354100100552
 !CCSD total energy                  -114.242768996640

 Starting CP-CCSD iterations.   Author: W. Gyorffy (2012)

 ITER.      NRM1           NRM2      VAR(S)+VAR(P)   DIIS    TIME
   1     0.00462030     0.32105024     1.44e-03      1  1    3.63
   2     0.00425002     0.31439686     1.49e-04      2  2    6.86
   3     0.00388902     0.31414117     2.31e-05      3  3   10.62
   4     0.00367280     0.31334350     4.85e-06      4  4   14.52
   5     0.00352853     0.31317001     6.74e-07      5  5   17.75
   6     0.00346322     0.31310290     6.28e-08      6  0   21.00
   7     0.00344360     0.31310368     5.04e-09      6  1   24.86
   8     0.00344027     0.31310480     4.17e-10      6  2   29.29
   9     0.00344010     0.31310565     6.93e-11      6  3   33.68
  10     0.00343997     0.31310560     9.10e-12      6  4   37.84
  11     0.00343996     0.31310556     1.82e-12      6  5   41.33
  12     0.00343996     0.31310561     2.14e-13             44.70


 Time per iteration:                      3.73 sec

 CPHF start vector      0.2 not found

 Starting Coupled-perturbed Hartree-Fock, convergence threshold= 1.0D-06

 ITER   MIC  DIIS      VAR         VARC       CPU
   1     0     1    0.88D-02    0.13D-02     0.00
   2     4     2    0.23D-03    0.89D-04     0.01
   3     5     3    0.63D-05    0.25D-05     0.01
   4     2     4    0.78D-06    0.12D-06     0.02

 CPHF convergence reached in  4 macroiterations and   11 microiterations.   Accuracy: 7.8151D-07

 CPHF solution written to record  8500.2

 Dipole moments (unrelaxed):            0.00000000     0.00008909    -0.94035631
 Orbital relaxation contribution:      -0.00000000     0.00003398    -0.02503232
 !CCSD STATE 1.1 Dipole moment          0.00000000     0.00012308    -0.96538864
 Dipole moment /Debye                   0.00000000     0.00031284    -2.45377317

 CPU-time for coupled-perturbed hartree-fock:          0.09 sec

 Number of N-1 electron functions:               6
 Number of N-2 electron functions:              21
 Number of singly external CSFs:               156
 Number of doubly external CSFs:             15816
 Total number of CSFs:                       15973

 CCSD gradient info saved on record        55555.1




 **********************************************************************************************************************************
 DATASETS  * FILE   NREC   LENGTH (MB)   RECORD NAMES
              1      20       31.64       500      610      700      900      950      970     1000      129      960     1100   
                                          VAR    BASINP    GEOM    SYMINP    ZMAT    AOBASIS   BASIS     P2S    ABASIS      S 
                                         1400     1410     1200     1210     1080     1600     1650     1700     1380    55555   
                                           T        V       H0       H01     AOSYM     SMH    MOLCAS    OPER     JKOP     CCSD   

              2       5        0.46       700     1000      520     2100     8500   
                                         GEOM     BASIS   MCVARS     RHF     CPHF   

 PROGRAMS   *        TOTAL      CCSD    HF-SCF       INT
 CPU TIMES  *       122.35    119.14      0.68      1.38
 REAL TIME  *        91.78 SEC
 DISK USED  *        32.17 MB (local),      218.79 MB (total)
 SF USED    *        16.22 MB
 GA USED    *         0.00 MB       (max)       0.00 MB       (current)
 **********************************************************************************************************************************


 PROGRAM * OPT (Geometry optimization)     Authors: F. Eckert and H.-J. Werner


 BFGS update of hessian

 *** Long output written to logfile /home/zwa/Overlap_Integral_Project/overlap_integral_gaussian/molpro_files/formaldehyde/formalccsd/formaldehyde.log ***


 Geometry optimization using default procedure for command CCSD

 Geometry written to block  1 of record 700

 Making model hessian for cartesian coordinates

 Entering Rational Function Geometry Optimization

 ITER.   ENERGY(OLD)    ENERGY(NEW)      DE          GRADMAX     GRADNORM    GRADRMS     STEPMAX     STEPLEN     STEPRMS   CPU-time
   1  -114.24276900  -114.24733672    -0.00456773  0.11869936  0.11913145  0.01985524  0.05483227  0.06008793  0.03004396    127.35
   2  -114.24733672  -114.24800819    -0.00067146  0.04050177  0.04137830  0.00689638  0.02983471  0.04219038  0.02109519    255.13
   3  -114.24800819  -114.24803094    -0.00002275  0.00611520  0.00707691  0.00117948  0.00582962  0.00801957  0.00400979    379.40
   4  -114.24803094  -114.24803137    -0.00000043  0.00060379  0.00061394  0.00010232  0.00134773  0.00138026  0.00069013    508.79
   5  -114.24803137  -114.24803137    -0.00000000  0.00003730  0.00005155  0.00000859  0.00015450  0.00018069  0.00009034    635.03

 END OF GEOMETRY OPTIMIZATION.

 Geometry written to block  1 of record 700

 Recomputing wavefunction for reoriented structure

 Current geometry (xyz format, in Angstrom)

    4
 CCSD/6-311G(D,P)  ENERGY=-114.24803137
 C          0.0000000000        0.0000000181       -0.6024753112
 H          0.0000000000        0.9374033902       -1.1915780256
 H          0.0000000000       -0.9374029317       -1.1915791793
 O          0.0000000000       -0.0000000424        0.6021608840

 **********************************************************************************************************************************


 **********************************************************************************************************************************
 DATASETS  * FILE   NREC   LENGTH (MB)   RECORD NAMES
              1      20       31.64       500      610      700      900      950      970     1000      129      960     1100   
                                          VAR    BASINP    GEOM    SYMINP    ZMAT    AOBASIS   BASIS     P2S    ABASIS      S 
                                         1400     1410     1200     1210     1080     1600     1650     1700     1380    55555   
                                           T        V       H0       H01     AOSYM     SMH    MOLCAS    OPER     JKOP     CCSD   

              2       6        0.48       700     1000      520     2100     8500     9001   
                                         GEOM     BASIS   MCVARS     RHF     CPHF    DEN_MP2    

 PROGRAMS   *        TOTAL      OPTG      CCSD    HF-SCF       INT
 CPU TIMES  *       871.33    748.95    119.14      0.68      1.38
 REAL TIME  *       651.65 SEC
 DISK USED  *        32.18 MB (local),      219.13 MB (total)
 SF USED    *        16.24 MB
 GA USED    *         0.00 MB       (max)       0.00 MB       (current)
 **********************************************************************************************************************************


 PROGRAM * HESSIAN

 Computing numerical hessian using default procedure for command CCSD

 Symmetry elements for unique displacements: X  Y  

 Using AUTO symmetry option

 Running default procedure: HF-SCF000  CCSD

