[Molden Format]
[Molpro variables]
_NUMVAR=  1059.000000000000    
_AVOGAD= 0.6022140760000000E+24
_BOLTZ= 0.1380649000000000E-22
_CLIGHTSI=  299792458.0000000    
_JOULE= 0.4359744722207100E-17
_JPCAL=  4.184000000000000    
_PLANCK= 0.6626070150000000E-33
_BOHR= 0.5291772109030000E-10
_ECHARG= 0.1602176634000000E-18
_ENULL= 0.8854187812800001E-11
_MU= 0.1660539066600000E-26
_EMASS= 0.9109383701500001E-30
_AMU2AU=  1822.888486217313    
_CLIGHT=  29979245800.00000    
_EV= 0.3674932217565494E-01
_KJOULE= 0.3808798847133432E-03
_KJOULE/MOL= 0.3808798847133432E-03
_CM= 0.4556335252912009E-05
_CM-1= 0.4556335252912009E-05
_DEB2SI= 0.3335640951981520E-29
_KCAL= 0.1593601437640628E-02
_KCAL/MOL= 0.1593601437640628E-02
_KELVIN= 0.3166811563455608E-05
_HERTZ= 0.1519829846057038E-15
_HZ= 0.1519829846057038E-15
_TOA= 0.5291772109030000    
_TOANG= 0.5291772109030000    
_TORAD= 0.1745329251994330E-01
_TOCM=  219474.6313631965    
_TODEBYE=  2.541746473194078    
_TOE= 0.4803204712570263E-09
_TOEV=  27.21138624598803    
_TOHERTZ=  6579683920501656.    
_TOHZ=  6579683920501656.    
_TOK=  315775.0248040668    
_TOKCAL=  627.5094740630558    
_TOKELVIN=  315775.0248040668    
_TOKJ=  2625.499639479825    
_TOKJOULE=  2625.499639479825    
_TOKG= 0.1660539066600000E-26
_ANG=  1.889726124625770    
_ANGSTROM=  1.889726124625770    
_RPAREF=  0.000000000000000    
_RPADISS=  0.000000000000000    
_IGNORE_UNDEF=  2.000000000000000    
_STRICTCHECK=  0.000000000000000    
!SEWARD=  0.000000000000000    
!MULTI=  0.000000000000000    
!DFMULTI=  0.000000000000000    
_SEW_ONEEL=  0.000000000000000    
_CPPDONE=FALSE
_DKROLL_DONE=  0.000000000000000    
_FNUC_DONE=  0.000000000000000    
_FOCKDONE=TRUE
_GRADONE=FALSE
_HESSDONE=TRUE
_INTDONE=TRUE
_SCFDONE=TRUE
_MODUL_BLOCK=FALSE
_MODUL_SLATER=FALSE
_MODUL_MRCC=FALSE
_MODUL_NBO6=FALSE
_MODUL_NECI=FALSE
_MODUL_AIMS=TRUE
_MODUL_HDF5=FALSE
_MODUL_GECCO=FALSE
_ISWINDOWS=FALSE
_MRCC_EXEC=
_FITC_AO_SAVED=FALSE
_FITC_MO_SAVED=FALSE
_SHARED_FS=TRUE
_LSTYP=SEWARD
_INTYP=INTS
_GEOMTYP=ZMAT
_GRADTYP=ALASKA
_DIRECT=FALSE
_DKHO= -1.000000000000000    
_FNUC=  0.000000000000000    
_SYNCM=  0.000000000000000    
_BASIS=VDZ
_ZCENTRE=MASS
_ZORIENT=  1.000000000000000    
_NELEC=  18.00000000000000    
!SPIN=  0.000000000000000    
_OPTCONV= 0.2361940795387524E-05
_QSDSTEP=  0.000000000000000    
_QSDIRC=  0.000000000000000    
_PROGRAM=FREQ
_CPUSTEP= 0.2000000000043656E-01
_SYSSTEP=  0.000000000000000    
_WALLSTEP= 0.2000000000000000E-01
!DFMP2=  0.000000000000000    
!DFSCF=  0.000000000000000    
!SCSGRD=  0.000000000000000    
_NCEN=  6.000000000000000    
_CPUTOT=  5934.360000000000    
_CPUCCSD=  0.000000000000000    
_SYSCCSD=  0.000000000000000    
_WALLCCSD=  0.000000000000000    
_CPUF12=  0.000000000000000    
_SYSF12=  0.000000000000000    
_WALLF12=  0.000000000000000    
_CPUF12B=  0.000000000000000    
_SYSF12B=  0.000000000000000    
_WALLF12B=  0.000000000000000    
_CPUTRANS=  0.000000000000000    
_SYSTRANS=  0.000000000000000    
_WALLTRANS=  0.000000000000000    
_DFTEXFAC=  1.000000000000000    
_DMX= 0.2519089741257781E-06
_DMY=-0.5572653451988557    
_DMZ= 0.3187983799238814    
_DMX_SCF= 0.2129020393818780E-06
_DMY_SCF=-0.5963240143394836    
_DMZ_SCF= 0.3836010415835052    
_FREQUENCIES= 0.3009104111981128E-04
_HOMO=  9.100000000000000    
_EHOMO=-0.4422303099159339    
_LUMO=  10.10000000000000    
_ELUMO= 0.1831642826051567    
_ENERGC= -115.4129209521919    
_ENERGR= -115.0484813180384    
_ENERGY= -115.4129209521919    
_ENERGY_METHOD=CCSD
_ENERGY_BASIS=cc-pVDZ
_GEOMETRY_METHOD=
_GEOMETRY_BASIS=
_ENUC=  40.17373266489162    
_FREQSTEP=  37.00000000000000    
_GRADENERG= -115.4129149669349    
_GRADEXFAC=  9999.000000000000    
_GRADMETHOD=  12.00000000000000    
_NMRMETHOD=  0.000000000000000    
_NMRMAGNET=  0.000000000000000    
_GRADRECORD=TRUE
_VIRIAL= 0.4158784471016251E-02
!GRID_FREEZE= -1.000000000000000    
!NEESE_INDEX=  0.000000000000000    
_ITERATIONS=  10.00000000000000    
_LASTNELEC=  18.00000000000000    
_LASTSPIN=  0.000000000000000    
_LASTSYM=  1.000000000000000    
_MPP_PROG=  1.000000000000000    
_MSNSTATES=  0.000000000000000    
_RS2PHASE=  0.000000000000000    
_IPROC_MPP=  0.000000000000000    
_IPROC_MPPX=  0.000000000000000    
_NPROC_MPP=  6.000000000000000    
_NPROC_MPPX=  6.000000000000000    
_NPROC_SMP=  6.000000000000000    
_NUMSTEP=  0.000000000000000    
_OPTCONVMX= 0.1595710569594779E-05
_OPTCONVRMS= 0.9642582918599420E-06
_OPTGRAD= 0.1194628665232344E-06
_OPTGRADMX= 0.8055144462559838E-07
_OPTGRADRMS= 0.2815766767285414E-07
_OPTSTEP=  10.00000000000000    
_ORBITAL=  2100.200000000000    
_PI=  3.141592653589793    
_SEIG_MIN= 0.9778262251291544E-02
_SEWPROP=TRUE
_STATUS= -1.000000000000000    
_SYSTOT=  35.84000000000000    
_VERSION=  2022003.000000000    
_WALLTOT=  7596.290000000000    
_ZPE= 0.5185500857278509E-01
_DATE=27-Aug-25
_LASTORB=0
_METHODC=CCSD
_OUTPUT=/home/lme/overlap_integral_gaussian/molpro_files/methanol/ccsd/vdz/methanol_vdz_ccsd.out
_PGROUP=C1
_TIME=09:13:54
_LIBMOL=/usr/local/molpro/molpro_2022.3.0_sockets/lib/
_VIGRDC=  0.000000000000000    
!VIBCNT=  0.000000000000000    
!RGHFCNT=  0.000000000000000    
!SURFREC=  0.000000000000000    
!XSURFREC=  0.000000000000000    
!XPOLYREC=  0.000000000000000    
!ROTREC=  0.000000000000000    
!POLYREC=  0.000000000000000    
!DIPREC=  0.000000000000000    
!DIP4DREC=  0.000000000000000    
!DIPROT=  0.000000000000000    
!DIP4DROT=  0.000000000000000    
!PTREC=  0.000000000000000    
!PT4DREC=  0.000000000000000    
!VSCFREC=  0.000000000000000    
!VCIREC=  0.000000000000000    
!PVCIREC=  0.000000000000000    
!VMP2REC=  0.000000000000000    
!VMCSCFREC=  0.000000000000000    
!VMRCIREC=  0.000000000000000    
!VIBSTATEREC=  0.000000000000000    
!VIBSTATECNT=  0.000000000000000    
!VIBINFO=  0.000000000000000    
!GAREC=  0.000000000000000    
!SCFORB=  21002.00000000000    
!CIOCC=  9.000000000000000    
!CICORE=  2.000000000000000    
!DEFCORE=  2.000000000000000    
!SCORE=  0.000000000000000    
!CICLOS=  9.000000000000000    
!CIISTSYM=  1.000000000000000    
!CIISTMS2=  0.000000000000000    
!CIISTNEL=  14.00000000000000    
!NEWMOL= -1.000000000000000    
!NEWSYM= -1.000000000000000    
_SLFILES=slscratch
_NGSSTO=  9.000000000000000    
_SIN=SIN
_COS=COS
_TAN=TAN
_ACOS=ACOS
_ASIN=ASIN
_ATAN=ATAN
_COSH=COSH
_SINH=SINH
_TANH=TANH
_ABS=ABS
_MOD=MOD
_ERF=ERF
_REFC=REFC
_ERFC=ERFC
_HYPOT=HYPOT
_J0=J0
_J1=J1
_JN=JN
_GAMMA=GAMMA
_LGAMMA=LGAMMA
_Y0=Y0
_Y1=Y1
_YN=YN
_EXP=EXP
_LOG=LOG
_LOG10=LOG10
_SQRT=SQRT
_INT=INT
_NINT=NINT
_MAX=MAX
_MIN=MIN
_COSMO=  0.000000000000000    
_COSMOIT=  0.000000000000000    
_COSMOES=  0.000000000000000    
_COSMOEDS=  0.000000000000000    
_COSMOEC=  0.000000000000000    
_COSMOEDCORR=  0.000000000000000    
_FEPSI=  1.000000000000000    
_SL_IsMM=  0.000000000000000    
_SL_NSYM=  1.000000000000000    
_SL_System_BitSw=  0.000000000000000    
_SL_Unique_atoms=  0.000000000000000    
_SL_GRAD=  0.000000000000000    
_SL_MAXUPD_Hess=  5.000000000000000    
_SL_N_PRINT_COD=  5.000000000000000    
_SL_PRINT_CODES=  0.000000000000000    
_SL_BasType=  0.000000000000000    
_SL_Energy_Pred=  0.000000000000000    
_SL_New_Coords=  0.000000000000000    
_SL_Total_Nuclea=  0.000000000000000    
_SL_Highest_Mltp=  0.000000000000000    
_SL_Ref_Geom=  0.000000000000000    
_SL_Symmetry_ope=  1.000000000000000    
_SL_agrad=  0.000000000000000    
_SL_GrdMax=  0.000000000000000    
_SL_GrdNorm=  0.000000000000000    
_SL_GrdRMS=  0.000000000000000    
_SL_Hss_Q=  0.000000000000000    
_SL_Hss_X=  0.000000000000000    
_SL_BMxOld=  0.000000000000000    
_SL_KtB=  0.000000000000000    
_SL_TROld=  0.000000000000000    
_SL_No_of_Intern=  0.000000000000000    
_SL_Hess=  0.000000000000000    
_SL_K=  0.000000000000000    
!LATTICE= -1.000000000000000    
!NEWLATTICE=  0.000000000000000    
!LATGRAD_VAR=FALSE
!SEW_LATTICE=  1.000000000000000    
!AIC_ONEEL=  0.000000000000000    
!LOCAL=  0.000000000000000    
!SAVEDOM= -1.000000000000000    
!RESTDOM= -1.000000000000000    
!SAVEDOM_HF= -1.000000000000000    
!RESTDOM_HF= -1.000000000000000    
!HESSREC=  5300.200000000000    
!FREQREC=  5400.200000000000    
!NMODREC=  5450.200000000000    
!GTASKS=  0.000000000000000    
!HTASKS=  0.000000000000000    
!SAVEDOM_EOM= -1.000000000000000    
!RESTDOM_EOM= -1.000000000000000    
!GRADSTATE= -1.000000000000000    
!DEBUG=  0.000000000000000    
!CFIT_CPHF=  0.000000000000000    
!RDOMAUX_CPHF=  0.000000000000000    
!THRAO_CPHF= 0.1000000000000000E-11
!THRMO_CPHF= 0.1000000000000000E-11
!THROV_CPHF= 0.1000000000000000E-11
!THRSW_CPHF= 0.1000000000000000E-11
!THRPROD_CPHF= 0.1000000000000000E-11
!THRAOPR_CPHF= 0.1000000000000000E-11
!CFIT_SCFGRD=  0.000000000000000    
!RDOMAUX_SCFGRD=  0.000000000000000    
!THRAO_SCFGRD= 0.1000000000000000E-11
!THRMO_SCFGRD= 0.1000000000000000E-11
!THROV_SCFGRD= 0.1000000000000000E-11
!THRSW_SCFGRD= 0.1000000000000000E-11
!THRPROD_SCFGRD= 0.1000000000000000E-11
!THRAOPR_SCFGRD= 0.1000000000000000E-11
!LOCFIT_SCF=  0.000000000000000    
!LOCFIT_MP2=  0.000000000000000    
_RIDOM=  0.000000000000000    
!CC2_METHOD=  0.000000000000000    
_BASIS2006=FALSE
_SVDDEL= -1.000000000000000    
_SVDDELA= -1.000000000000000    
_SVDDELP= -1.000000000000000    
_SVDDELF= -1.000000000000000    
_SVDDELS= -1.000000000000000    
_SVDDEL_ABS= -1.000000000000000    
_SVDDELA_ABS= -1.000000000000000    
_SVDDELP_ABS= -1.000000000000000    
_SVDDELF_ABS= -1.000000000000000    
_SVDDELS_ABS= -1.000000000000000    
_MAXBASIS=  0.000000000000000    
!OPT_CONICAL=  0.000000000000000    
!CLEARSP_JGRID=  0.000000000000000    
_GRDHYBR=  0.000000000000000    
_STATEGRAD=  1.000000000000000    
_4EXT_NDISKS=  1.000000000000000    
!EMBEDFLAG=  1.000000000000000    
!EMBED=FALSE
!EMBED_F12=FALSE
!EMBEDNUC=  0.000000000000000    
_EMBEDENERGY=  0.000000000000000    
!EMBED_DFC=FALSE
!NUM_VOIDS=  0.000000000000000    
_IBODY=  0.000000000000000    
_EMBE_CORR=  0.000000000000000    
!EMBED_PROJ=FALSE
!EMB_PROJ_ZMU=  1000000.000000000    
!CORRECTION_HF=  0.000000000000000    
!EMBED_AORB=  0.000000000000000    
!EMBED_NACORR=  0.000000000000000    
!EMBED_MP2=FALSE
!EMBED_TRUNC_PERTURBATION=FALSE
!EMBED_FROZEN=  0.000000000000000    
!EMBED_ACTIVE=  0.000000000000000    
_CHANGE_BASIS=FALSE
_RESTORE_BASIS=FALSE
_FIX_EMBED_GUESS=FALSE
_EMBED_SCF=FALSE
_HUZINAGA_T=FALSE
_HUZINAGA_F=FALSE
_HUZINAGA=FALSE
_HUZINAGA_CORRECT=FALSE
!FASTLATGRAD=  1.000000000000000    
!FASTVLAMBDA= -1.000000000000000    
!IFORCE= -1.000000000000000    
!USESYM= -1.000000000000000    
_SINDEX=  0.000000000000000    
_AVDOM_OSV=  0.000000000000000    
_AVDOM_PNO=  0.000000000000000    
_AVDOM_PAO=  0.000000000000000    
_AVDOM_LMO=  0.000000000000000    
!CPP_PROG=CCSD-GRAD
_CC2OSV_FLAG=  0.000000000000000    
_EOMCCSD_CONV=FALSE
_TMADC2_FLAG=FALSE
_PROPADC2_FLAG=FALSE
_LEN_VirQ=  0.000000000000000    
_GRDCC2LR_FLAG=FALSE
_GRDADC2_FLAG=FALSE
_RO_VGLOBAL=  0.000000000000000    
_OPT=FALSE
_FREQ=FALSE
_HESS=FALSE
_CMRCC_callName=EMPTY
_CMRCC_callCount=  0.000000000000000    
_GECCO_CIROOT=  1.000000000000000    
_SYM_CATION=  1.000000000000000    
_MON_A=FALSE
_MON_B=FALSE
GX1= 0.4255112218074368E-05
GY1=  1.022706778042203    
GZ1=  1.104776792878672    
GX2=-0.7001260475658026E-08
GY2=-0.1236028058924702E-01
GZ2= 0.7242684159483240    
GX3= 0.8991972958251273    
GY3=-0.5235772405666731    
GZ3=  1.126264297840000    
GX4=-0.8992013013661448    
GY4=-0.5235700390863129    
GZ4=  1.126264583749863    
GX5=-0.7957863836695683E-08
GY5= 0.6400234676513558E-01
GZ5=-0.6908821456608139    
GX6=-0.3991134739041795E-07
GY6=-0.8441511777245878    
GZ6= -1.016247704015610    
HX1= 0.8040996721709465E-05
HY1=  1.932635716298199    
HZ1=  2.087725567383100    
CX2=-0.1323046482613888E-07
CY2=-0.2335754513720500E-01
CZ2=  1.368668946858872    
HX3=  1.699236621113590    
HY3=-0.9894175897583137    
HZ3=  2.128331066861547    
HX4= -1.699244190489094    
HY4=-0.9894039809327412    
HZ4=  2.128331607152885    
OX5=-0.1503818318839656E-07
OY5= 0.1209469067194344    
OZ5= -1.305578039692747    
HX6=-0.7542151583266545E-07
HY6= -1.595214533679765    
HZ6= -1.920429835369256    
[Atoms] Angs
H     1    1         0.0000042551        1.0227067780        1.1047767929
C     2    6        -0.0000000070       -0.0123602806        0.7242684159
H     3    1         0.8991972958       -0.5235772406        1.1262642978
H     4    1        -0.8992013014       -0.5235700391        1.1262645837
O     5    8        -0.0000000080        0.0640023468       -0.6908821457
H     6    1        -0.0000000399       -0.8441511777       -1.0162477040
[GTO]
   1 0
 s    4  1.00
  0.1301000000D+02  0.1968498999D-01
  0.1962000000D+01  0.1379769298D+00
  0.4446000000D+00  0.4781477569D+00
  0.1220000000D+00  0.5012397451D+00
 s    4  1.00
  0.1301000000D+02  0.0000000000D+00
  0.1962000000D+01  0.0000000000D+00
  0.4446000000D+00  0.0000000000D+00
  0.1220000000D+00  0.1000000000D+01
 p    1  1.00
  0.7270000000D+00  0.1000000000D+01
  
   2 0
 s    9  1.00
  0.6665000000D+04  0.6920001793D-03
  0.1000000000D+04  0.5329001381D-02
  0.2280000000D+03  0.2707700701D-01
  0.6471000000D+02  0.1017180264D+00
  0.2106000000D+02  0.2747400712D+00
  0.7495000000D+01  0.4485641162D+00
  0.2797000000D+01  0.2850740738D+00
  0.5215000000D+00  0.1520400394D-01
  0.1596000000D+00 -0.3191000827D-02
 s    9  1.00
  0.6665000000D+04 -0.1460000642D-03
  0.1000000000D+04 -0.1154000508D-02
  0.2280000000D+03 -0.5725002519D-02
  0.6471000000D+02 -0.2331201026D-01
  0.2106000000D+02 -0.6395502813D-01
  0.7495000000D+01 -0.1499810660D+00
  0.2797000000D+01 -0.1272620560D+00
  0.5215000000D+00  0.5445292395D+00
  0.1596000000D+00  0.5804962554D+00
 s    9  1.00
  0.6665000000D+04  0.0000000000D+00
  0.1000000000D+04  0.0000000000D+00
  0.2280000000D+03  0.0000000000D+00
  0.6471000000D+02  0.0000000000D+00
  0.2106000000D+02  0.0000000000D+00
  0.7495000000D+01  0.0000000000D+00
  0.2797000000D+01  0.0000000000D+00
  0.5215000000D+00  0.0000000000D+00
  0.1596000000D+00  0.1000000000D+01
 p    4  1.00
  0.9439000000D+01  0.3810902127D-01
  0.2002000000D+01  0.2094801169D+00
  0.5456000000D+00  0.5085572839D+00
  0.1517000000D+00  0.4688422617D+00
 p    4  1.00
  0.9439000000D+01  0.0000000000D+00
  0.2002000000D+01  0.0000000000D+00
  0.5456000000D+00  0.0000000000D+00
  0.1517000000D+00  0.1000000000D+01
 d    1  1.00
  0.5500000000D+00  0.1000000000D+01
  
   3 0
 s    4  1.00
  0.1301000000D+02  0.1968498999D-01
  0.1962000000D+01  0.1379769298D+00
  0.4446000000D+00  0.4781477569D+00
  0.1220000000D+00  0.5012397451D+00
 s    4  1.00
  0.1301000000D+02  0.0000000000D+00
  0.1962000000D+01  0.0000000000D+00
  0.4446000000D+00  0.0000000000D+00
  0.1220000000D+00  0.1000000000D+01
 p    1  1.00
  0.7270000000D+00  0.1000000000D+01
  
   4 0
 s    4  1.00
  0.1301000000D+02  0.1968498999D-01
  0.1962000000D+01  0.1379769298D+00
  0.4446000000D+00  0.4781477569D+00
  0.1220000000D+00  0.5012397451D+00
 s    4  1.00
  0.1301000000D+02  0.0000000000D+00
  0.1962000000D+01  0.0000000000D+00
  0.4446000000D+00  0.0000000000D+00
  0.1220000000D+00  0.1000000000D+01
 p    1  1.00
  0.7270000000D+00  0.1000000000D+01
  
   5 0
 s    9  1.00
  0.1172000000D+05  0.7100002503D-03
  0.1759000000D+04  0.5470001928D-02
  0.4008000000D+03  0.2783700981D-01
  0.1137000000D+03  0.1048000369D+00
  0.3703000000D+02  0.2830620998D+00
  0.1327000000D+02  0.4487191582D+00
  0.5025000000D+01  0.2709520955D+00
  0.1013000000D+01  0.1545800545D-01
  0.3023000000D+00 -0.2585000911D-02
 s    9  1.00
  0.1172000000D+05 -0.1600000154D-03
  0.1759000000D+04 -0.1263000121D-02
  0.4008000000D+03 -0.6267000602D-02
  0.1137000000D+03 -0.2571600247D-01
  0.3703000000D+02 -0.7092400682D-01
  0.1327000000D+02 -0.1654110159D+00
  0.5025000000D+01 -0.1169550112D+00
  0.1013000000D+01  0.5573680536D+00
  0.3023000000D+00  0.5727590551D+00
 s    9  1.00
  0.1172000000D+05  0.0000000000D+00
  0.1759000000D+04  0.0000000000D+00
  0.4008000000D+03  0.0000000000D+00
  0.1137000000D+03  0.0000000000D+00
  0.3703000000D+02  0.0000000000D+00
  0.1327000000D+02  0.0000000000D+00
  0.5025000000D+01  0.0000000000D+00
  0.1013000000D+01  0.0000000000D+00
  0.3023000000D+00  0.1000000000D+01
 p    4  1.00
  0.1770000000D+02  0.4301799242D-01
  0.3854000000D+01  0.2289129597D+00
  0.1046000000D+01  0.5087279104D+00
  0.2753000000D+00  0.4605309189D+00
 p    4  1.00
  0.1770000000D+02  0.0000000000D+00
  0.3854000000D+01  0.0000000000D+00
  0.1046000000D+01  0.0000000000D+00
  0.2753000000D+00  0.1000000000D+01
 d    1  1.00
  0.1185000000D+01  0.1000000000D+01
  
   6 0
 s    4  1.00
  0.1301000000D+02  0.1968498999D-01
  0.1962000000D+01  0.1379769298D+00
  0.4446000000D+00  0.4781477569D+00
  0.1220000000D+00  0.5012397451D+00
 s    4  1.00
  0.1301000000D+02  0.0000000000D+00
  0.1962000000D+01  0.0000000000D+00
  0.4446000000D+00  0.0000000000D+00
  0.1220000000D+00  0.1000000000D+01
 p    1  1.00
  0.7270000000D+00  0.1000000000D+01


[MO]
 Sym=      1.1
 Ene=     -20.5527
 Spin= Alpha
 Occup=    2.000000
1 -0.000533338553618
2 0.000105768648833
3 0.000000000159702
4 0.000062042961828
5 0.000111085624127
6 0.000000507813325
7 0.000062521797471
8 0.002407838805193
9 -0.000000000107165
10 -0.000003482862198
11 -0.000451672916082
12 0.000000000884721
13 0.000031525656008
14 -0.000858273801994
15 0.000092296917444
16 0.000064046004012
17 -0.000156342921455
18 -0.000000000030960
19 0.000000000028354
20 0.000063029222262
21 -0.000518518766322
22 0.000149814757863
23 0.000028657955482
24 -0.000028178793429
25 0.000147681913444
26 -0.000518518766472
27 0.000149815960200
28 -0.000028658212572
29 -0.000028178478683
30 0.000147681864283
31 1.00063954104451
32 0.003139430541735
33 -0.003912023968342
34 -0.000000000278065
35 -0.002030116155128
36 0.001235511865112
37 0.000000000067456
38 0.001440874350966
39 -0.002055575639916
40 0.000071958165589
41 0.000148219348646
42 -0.000220177514235
43 -0.000000000016695
44 0.000000000000441
45 0.000093900498348
46 0.000001292404739
47 0.000072569879217
48 0.000000000002889
49 -0.000674342242265
50 -0.000132459304406
 Sym=      2.1
 Ene=     -11.2795
 Spin= Alpha
 Occup=    2.000000
1 0.000201398615755
2 0.001114598957285
3 0.000000000927872
4 0.000238796424020
5 0.000147600546696
6 1.00136992232804
7 0.007825174921688
8 -0.008435059512830
9 0.000000000397573
10 -0.000065793002850
11 -0.000865727385924
12 0.000000000114433
13 0.000106063816440
14 -0.000125283576947
15 -0.000012240781601
16 -0.000005384595039
17 0.000017625376640
18 0.000000000099870
19 -0.000000000068530
20 0.000003921902621
21 0.000212288855277
22 0.001187431531597
23 0.000215573440463
24 -0.000132798348618
25 0.000135946051382
26 0.000212288806248
27 0.001187432185365
28 -0.000215574329889
29 -0.000132796511403
30 0.000135946036487
31 0.000122095063628
32 0.000831667975890
33 -0.001056561392487
34 0.000000000006618
35 0.000002663856877
36 0.000355513096404
37 -0.000000000113589
38 0.000335677085031
39 -0.000755738748950
40 0.000208517030238
41 0.000026007663730
42 -0.000234524693968
43 -0.000000000017486
44 -0.000000000052933
45 0.000011911815756
46 0.000586099369463
47 -0.000078224115758
48 -0.000000000036818
49 0.000066441249723
50 0.000308916037848
 Sym=      3.1
 Ene=      -1.3518
 Spin= Alpha
 Occup=    2.000000
1 0.061368565359262
2 -0.025212541978128
3 -0.000000028116016
4 -0.005903817323546
5 -0.004452773972878
6 -0.009466918117817
7 0.26875820043497
8 -0.11779592012946
9 0.000000000900235
10 -0.000309172758200
11 -0.15545745545022
12 0.000000010192031
13 -0.007189228617442
14 0.057760612613194
15 -0.015123358105823
16 -0.015045284992277
17 0.030168643098100
18 0.000000004861548
19 0.000000000899879
20 0.002846053276926
21 0.058955652015267
22 -0.026519019034801
23 -0.006055241085237
24 0.003497042429121
25 -0.005176086243954
26 0.058955608131467
27 -0.026518951771722
28 0.006055259030404
29 0.003496993712631
30 -0.005176084072789
31 -0.010366091718419
32 0.83399430674325
33 -0.061603928213197
34 0.000000000988721
35 -0.088282880852334
36 0.074580455058859
37 -0.000000001152932
38 0.043387116406729
39 -0.000763592283100
40 -0.006414710574228
41 -0.000107399569018
42 0.006522110143246
43 0.000000000066856
44 -0.000000000311351
45 -0.000390576016257
46 0.29425327797423
47 -0.14163145084884
48 0.000000000962214
49 0.034011030229808
50 0.015033186580252
 Sym=      4.1
 Ene=      -0.9161
 Spin= Alpha
 Occup=    2.000000
1 0.32799226561303
2 -0.13326312726719
3 -0.000000096743193
4 -0.023976306158590
5 -0.006096766977012
6 -0.014737034101183
7 0.71954026931184
8 -0.19686650805449
9 0.000000065269201
10 0.019509994975092
11 0.082651192724501
12 -0.000000052930582
13 -0.013603458074799
14 -0.009588696329819
15 -0.001180131014987
16 0.002297886503803
17 -0.001117755488816
18 0.000000003148392
19 0.000000002200601
20 -0.003169849147732
21 0.31162795246551
22 -0.13061420174110
23 -0.019436759168168
24 0.011773577887729
25 -0.007413273376689
26 0.31162795540550
27 -0.13061424190760
28 0.019436859435469
29 0.011773424002443
30 -0.007413275956215
31 -0.001727658215997
32 -0.25666521652160
33 0.017862564326801
34 0.000000020010487
35 0.099863450070783
36 0.25767041939872
37 0.000000002026599
38 -0.037093832373832
39 -0.019573075786300
40 -0.003978322175127
41 -0.009572324276178
42 0.013550646451304
43 -0.000000000324280
44 0.000000000989790
45 -0.005313309676802
46 -0.25665040792428
47 0.10749993030920
48 0.000000001870902
49 -0.023165666039684
50 -0.005641886746784
 Sym=      5.1
 Ene=      -0.6825
 Spin= Alpha
 Occup=    2.000000
1 0.11031202582325
2 -0.043542710008064
3 -0.000000038197111
4 -0.003415263186294
5 -0.003808285663176
6 0.003475990106844
7 -0.075063874454969
8 0.005878939633102
9 -0.000000025562498
10 0.30468535188820
11 -0.27043917271800
12 0.000000045543686
13 -0.045737739366952
14 0.058642402200188
15 -0.018802565212757
16 -0.005889419230618
17 0.024691984443375
18 0.000000103203190
19 0.000000000556451
20 -0.017385609346341
21 -0.24228866264798
22 0.086418309625701
23 0.012862478783829
24 -0.001537091001969
25 0.000225763964986
26 -0.24228697012445
27 0.086417769065872
28 -0.012862439631386
29 -0.001536941635411
30 0.000225731274148
31 0.000310449190474
32 0.17199150887126
33 0.081584314599717
34 -0.000000011051049
35 0.54523256497066
36 0.28017590101793
37 -0.000000007392349
38 -0.059076512071465
39 -0.042634102691646
40 0.004118215855578
41 -0.018394513693558
42 0.014276297837980
43 -0.000000000270061
44 -0.000000001666521
45 0.001833148376093
46 -0.52483051258717
47 0.19336227339659
48 -0.000000003325856
49 -0.033879855489776
50 -0.015849393588788
 Sym=      6.1
 Ene=      -0.6110
 Spin= Alpha
 Occup=    2.000000
1 0.000001763360540
2 -0.000000589289646
3 0.011054429071198
4 -0.000000106987871
5 -0.000000026019956
6 0.000000001680522
7 -0.000000080625773
8 -0.000000024705661
9 0.54242367462697
10 -0.000000064553845
11 -0.000000171083875
12 -0.098922304347555
13 0.000000081541800
14 0.000000030852110
15 -0.000000170341810
16 0.000000165627729
17 0.000000004714081
18 -0.017523455327259
19 -0.006442940234859
20 0.000000002731566
21 0.40704782854132
22 -0.11475420611896
23 -0.010102429768789
24 0.011141570297709
25 -0.006832404434612
26 -0.40704968134199
27 0.11475483031707
28 -0.010102615271920
29 -0.011141463720267
30 0.006832423111472
31 0.000000001190180
32 -0.000000027975395
33 -0.000000018753982
34 0.50694055896764
35 -0.000000024200929
36 0.000000122431066
37 0.005160436936332
38 -0.000000012190542
39 -0.000000006214034
40 -0.000000005079429
41 0.000000001788079
42 0.000000003291350
43 -0.008702315802957
44 0.013216147000077
45 -0.000000002674141
46 -0.000000032994013
47 0.000000007089083
48 0.016346615411133
49 -0.000000006570346
50 0.000000012184440
 Sym=      7.1
 Ene=      -0.5847
 Spin= Alpha
 Occup=    2.000000
1 -0.44728632932385
2 0.13759163214185
3 0.000000100394481
4 0.018039962524918
5 0.000402618745550
6 0.002366831224438
7 0.020030904246213
8 -0.020154735889315
9 -0.000000149037279
10 -0.33701191406021
11 -0.45013781888691
12 -0.000000039260630
13 0.034229017110790
14 0.097208407122029
15 -0.011549293308911
16 -0.028341648791438
17 0.039890942100349
18 -0.000000136634370
19 0.000000004073001
20 -0.001235060725781
21 0.002537426140765
22 -0.004950163318435
23 -0.000281661861102
24 -0.005389424965266
25 -0.006878123883923
26 0.002535445214187
27 -0.004949674045661
28 0.000281569974455
29 -0.005389474758425
30 -0.006878084815645
31 -0.000321580968083
32 -0.12411316147313
33 -0.043466744281612
34 -0.000000181283649
35 -0.19641285490297
36 0.57920304924578
37 0.000000005235904
38 -0.017228742491187
39 -0.009837195541355
40 -0.007864134378383
41 -0.004682027394794
42 0.012546161773177
43 -0.000000000165921
44 -0.000000005994974
45 -0.018154057363459
46 -0.10011863731485
47 -0.000396636689242
48 -0.000000003261487
49 -0.012430677991603
50 0.016559876387966
 Sym=      8.1
 Ene=      -0.4957
 Spin= Alpha
 Occup=    2.000000
1 -0.48052398758907
2 0.11078408720151
3 0.000000093967531
4 0.012057338024173
5 0.010445114366987
6 -0.002926767312961
7 -0.047621276012392
8 0.044285685098581
9 0.000000024933612
10 -0.47567975678252
11 0.14170790035030
12 0.000000000954909
13 0.10160617963066
14 -0.065736406479947
15 0.021055071306760
16 -0.010935142595095
17 -0.010119928711665
18 -0.000000222468779
19 0.000000000364848
20 -0.031641559017750
21 0.28605453472332
22 -0.049027240612916
23 -0.012551746718129
24 -0.004613262879832
25 -0.001439163783350
26 0.28605084903840
27 -0.049026494619841
28 0.012551644527432
29 -0.004613439684220
30 -0.001439106512625
31 -0.000224748778298
32 0.19466729084916
33 0.099750896461465
34 -0.000000124763470
35 0.51039125492891
36 -0.24145401143677
37 -0.000000007996925
38 0.008136770161692
39 -0.040350107377175
40 0.010959550522576
41 -0.010195527901003
42 -0.000764022621573
43 -0.000000008446125
44 -0.000000001754372
45 0.000308829866415
46 -0.34282318792728
47 0.11481623047774
48 0.000000004891563
49 -0.011759089058779
50 -0.016923591821215
 Sym=      9.1
 Ene=      -0.4422
 Spin= Alpha
 Occup=    2.000000
1 -0.000001912931315
2 0.000000310487948
3 -0.008706654570007
4 0.000000086448862
5 0.000000027274332
6 0.000000001177088
7 0.000000020431287
8 0.000000012678450
9 -0.35776102428817
10 -0.000000137364638
11 0.000000034114589
12 0.083994441821444
13 0.000000031274460
14 -0.000000022400937
15 0.000000159757189
16 -0.000000169639989
17 0.000000009882800
18 0.016501384360650
19 -0.039689142126787
20 -0.000000006989403
21 -0.39163002594214
22 0.062935186393907
23 0.006034921228888
24 -0.007695527450023
25 0.005732776239563
26 0.39163186841080
27 -0.062935455822410
28 0.006035062682137
29 0.007695437194185
30 -0.005732802162319
31 -0.000000001686824
32 0.000000055278160
33 0.000000052132502
34 0.77620165312539
35 0.000000014720986
36 0.000000025335732
37 0.074946944031098
38 -0.000000018013348
39 -0.000000015321577
40 0.000000007120042
41 -0.000000007143609
42 0.000000000023567
43 -0.011294515567148
44 0.003817900653160
45 -0.000000004724006
46 -0.000000135810929
47 0.000000014808376
48 0.026377149356078
49 -0.000000002864464
50 -0.000000013407832
 Sym=     10.1
 Ene=       0.1832
 Spin= Alpha
 Occup=    0.000000
1 0.030512018526534
2 0.53361917120953
3 -0.000000028057285
4 -0.005897945791883
5 -0.009814916158409
6 0.073788948816264
7 -0.055950946608334
8 -1.68560281378420
9 -0.000000377912548
10 0.063252319717472
11 -0.21272775193867
12 -0.000000892884335
13 0.10473628621571
14 -0.23830222607714
15 -0.001599473922053
16 0.005349247111104
17 -0.003749773189051
18 0.000000052048025
19 -0.000000017860078
20 0.000407016054259
21 0.019073916270835
22 0.83348868308161
23 -0.010474165319163
24 0.003267436480820
25 -0.010994693341285
26 0.019073804379978
27 0.83348524041626
28 0.010474151744895
29 0.003267337272198
30 -0.010994658175639
31 0.019891945068746
32 -0.10971188611230
33 -0.40851753734077
34 0.000000084339409
35 0.17740625768010
36 0.081257706883533
37 0.000000139029723
38 0.14689779367558
39 0.15177077357035
40 0.005668069950442
41 -0.007747858893710
42 0.002079788943268
43 -0.000000007627422
44 -0.000000005328628
45 -0.001596873010778
46 0.066111019191965
47 0.81326824629922
48 0.000000006875323
49 0.016505556515376
50 0.005424307127957
 Sym=     11.1
 Ene=       0.2228
 Spin= Alpha
 Occup=    0.000000
1 -0.010370736078218
2 -1.06919058204120
3 0.000000070536756
4 0.018930687908777
5 -0.004386436974663
6 -0.045881665167472
7 0.19672689414069
8 1.31286811615466
9 -0.000000651760084
10 0.081803511804828
11 0.010625491982304
12 -0.000001415521598
13 0.21542741983732
14 0.22319914455571
15 0.002563190635180
16 0.015950251804842
17 -0.018513442440022
18 0.000000089127700
19 -0.000000033623549
20 -0.000474844469080
21 -0.002136756964562
22 -0.58809160965245
23 0.006975557345345
24 -0.008861400396608
25 -0.007049330116137
26 -0.002137121970484
27 -0.58809771274246
28 -0.006975702490504
29 -0.008861374275847
30 -0.007049265037262
31 0.032666317947693
32 -0.11806975765451
33 -0.62642788955031
34 0.000000182681648
35 0.23260159730870
36 -0.033079849948216
37 0.000000252343226
38 0.20577047412848
39 0.046346940751585
40 0.003598884066139
41 -0.013697331405221
42 0.010098447339082
43 -0.000000013558805
44 -0.000000011067547
45 0.000268250690009
46 0.10376178381057
47 1.10718748237637
48 0.000000020071173
49 0.027761742398854
50 -0.000889070769885
 Sym=     12.1
 Ene=       0.2655
 Spin= Alpha
 Occup=    0.000000
1 -0.000002291589850
2 -0.000049336982348
3 -0.001412431197008
4 0.000000544011014
5 0.000000415544183
6 0.000000228951290
7 -0.000000961170073
8 -0.000004645293935
9 -0.50448574409172
10 0.000013791725064
11 0.000002029864284
12 -1.14134647727291
13 0.000033328877021
14 0.000005009707330
15 -0.000000227529453
16 0.000000103720224
17 0.000000123809229
18 0.018011279515531
19 -0.017706827485388
20 0.000000347182810
21 0.013811173372112