
 Working directory              : /tmp/lme/molpro.ZFBw8GICZK/
 Global scratch directory       : /tmp/lme/molpro.ZFBw8GICZK/
 Wavefunction directory         : /home/lme/wfu/
 Main file repository           : /tmp/lme/molpro.ZFBw8GICZK/

 id        : liedlgroup

 Nodes     nprocs
 sv1-c724     6
 GA implementation: MPI file
 GA implementation (serial work in mppx): MPI file

 Using customized tuning parameters: mindgm=1; mindgv=20; mindgc=4; mindgr=1; noblas=0; minvec=7
 default implementation of scratch files=sf  


 Variables initialized (1025), CPU time= 0.02 sec
 memory, 200, m                                                                  ! Memory Requirements
 gthresh, optgrad=1.d-7,twoint=1.d-14,prefac=1.d-16                            ! Guntram Rezept um numerischen Schmutz zu entfernen
 orient,mass
 geometry = {
   H,      1.2001,      0.0363,      0.8431
   C,      0.7031,      0.0083,     -0.1305
   H,      0.9877,      0.8943,     -0.7114
   H,      1.0155,     -0.8918,     -0.6742
   O,     -0.6582,     -0.0067,      0.1730
   H,     -1.1326,     -0.0311,     -0.6482
 }
 
 mass, iso
 basis=vdz
 
 {hf
 start,atden}
 
 ccsd
 
 optg
 {frequencies, symm=auto, print=0,analytical}
 put,molden,methanol_ccsd.molden
 Commands initialized (840), CPU time= 0.01 sec, 684 directives.
 Default parameters read. Elapsed time= 0.69 sec

 Checking input...
 Passed
1


                                         ***  PROGRAM SYSTEM MOLPRO  ***
                                       Copyright, TTI GmbH Stuttgart, 2015
                                    Version 2022.3 linked Wed Nov 30 12:40:34 2022


 **********************************************************************************************************************************
 LABEL *                                                                                 
  (6 PROC) 64 bit mpp version                                                            DATE: 27-Aug-25          TIME: 09:13:54  
 **********************************************************************************************************************************

 SHA1:             e31ec9a5ea85254ab76f59d122cbdd51c71cf98b
 **********************************************************************************************************************************

 Memory per process:       200 MW
 Total memory per node:   1200 MW

 GA preallocation disabled
 GA check disabled

 Variable memory set to 200.0 MW


 THRESHOLDS:

 ZERO    =  1.00D-12  ONEINT  =  1.00D-12  TWOINT  =  1.00D-14  PREFAC  =  1.00D-16  XXXXXX  =  1.00D-09  EORDER  =  1.00D-04
 ENERGY  =  0.00D+00  ETEST   =  0.00D+00  EDENS   =  0.00D+00  THRDEDEF=  1.00D-06  GRADIENT=  1.00D-05  STEP    =  1.00D-03
 ORBITAL =  1.00D-05  CIVEC   =  1.00D-05  COEFF   =  1.00D-04  PRINTCI =  5.00D-02  PUNCHCI =  9.90D+01  OPTGRAD =  1.00D-07
 OPTENERG=  1.00D-06  OPTSTEP =  3.00D-04  THRGRAD =  1.00D-10  COMPRESS=  1.00D-11  VARMIN  =  1.00D-07  VARMAX  =  1.00D-03
 THRDOUB =  0.00D+00  THRDIV  =  1.00D-05  THRRED  =  1.00D-07  THRPSP  =  1.00D+00  THRDC   =  1.00D-10  THRCS   =  1.00D-10
 THRNRM  =  1.00D-08  THREQ   =  0.00D+00  THRDE   =  1.00D+00  THRREF  =  1.00D-05  SPARFAC =  1.00D+00  THRDLP  =  1.00D-07
 THRDIA  =  1.00D-10  THRDLS  =  1.00D-07  THRGPS  =  0.00D+00  THRKEX  =  0.00D+00  THRDIS  =  2.00D-01  THRVAR  =  1.00D-10
 THRLOC  =  1.00D-06  THRGAP  =  1.00D-06  THRLOCT = -1.00D+00  THRGAPT = -1.00D+00  THRORB  =  1.00D-06  THRMLTP =  0.00D+00
 THRCPQCI=  1.00D-10  KEXTA   =  0.00D+00  THRCOARS=  0.00D+00  SYMTOL  =  1.00D-06  GRADTOL =  1.00D-06  THROVL  =  1.00D-08
 THRORTH =  1.00D-08  THRDLOVL= -1.00D+00  GRID    =  1.00D-06  GRIDMAX =  1.00D-03  DTMAX   =  0.00D+00  THROCCDE=  1.00D-01
 THROCCDE=  1.00D-01  THRPRINT=  2.50D-01

 ZCENTRE=MASS


 Geometry recognized as XYZ



 Using masses of most abundant isotopes

 **********************************************************************************************************************************
 SETTING BASIS          =    VDZ


 Recomputing integrals since basis changed


 Using spherical harmonics

 Library entry H      S cc-pVDZ              selected for orbital group  1
 Library entry H      P cc-pVDZ              selected for orbital group  1
 Library entry C      S cc-pVDZ              selected for orbital group  2
 Library entry C      P cc-pVDZ              selected for orbital group  2
 Library entry C      D cc-pVDZ              selected for orbital group  2
 Library entry O      S cc-pVDZ              selected for orbital group  4
 Library entry O      P cc-pVDZ              selected for orbital group  4
 Library entry O      D cc-pVDZ              selected for orbital group  4


 PROGRAM * SEWARD (Integral evaluation for generally contracted gaussian basis sets)     Author: Roland Lindh, 1990

 Geometry written to block  1 of record 700

 Orientation using atomic masses  
 Molecule type: Asymmetric top
 Rotational constants:      24.7464623     25.6941431    127.2825897 GHz

 Point group  C1  



 ATOMIC COORDINATES

 NR  ATOM    CHARGE       X              Y              Z

   1  H       1.00    0.000239186    1.946913765    1.973978834
   2  C       6.00   -0.000000496   -0.023460726    1.351475288
   3  H       1.00    1.687995551   -0.978637244    2.083501359
   4  H       1.00   -1.688384931   -0.978085799    2.083191979
   5  O       8.00    0.000012311    0.116672798   -1.280592288
   6  H       1.00   -0.000039283   -1.562529362   -1.908533718

 Bond lengths in Bohr (Angstrom)

 1-2  2.066370334  2-3  2.073054511  2-4  2.073007561  2-5  2.635795350  5-6  1.792771691
     ( 1.093476090)     ( 1.097013204)     ( 1.096988359)     ( 1.394802832)     ( 0.948693923)

 Bond angles

  1-2-3  109.44373761   1-2-4  109.44299419   1-2-5  104.48537341   2-5-6  107.45579790

  3-2-4  109.04794568   3-2-5  112.15464891   4-2-5  112.14557272

 NUCLEAR CHARGE:                   18
 NUMBER OF PRIMITIVE AOS:          82
 NUMBER OF SYMMETRY AOS:           80
 NUMBER OF CONTRACTIONS:           48   (   48A   )
 NUMBER OF INNER CORE ORBITALS:     0   (    0A   )
 NUMBER OF OUTER CORE ORBITALS:     2   (    2A   )
 NUMBER OF VALENCE ORBITALS:       12   (   12A   )


 NUCLEAR REPULSION ENERGY   40.79052691

 Eigenvalues of metric

         1 0.945E-02 0.175E-01 0.367E-01 0.375E-01 0.379E-01 0.472E-01 0.478E-01 0.515E-01


 Contracted 2-electron integrals neglected if value below      1.0D-14
 AO integral compression algorithm  1   Integral accuracy      1.0D-14

     6.554 MB (compressed) written to integral file (100.0%)

     Node minimum: 0.524 MB, node maximum: 1.573 MB


 NUMBER OF SORTED TWO-ELECTRON INTEGRALS:     115836.     BUFFER LENGTH:  32768
 NUMBER OF SEGMENTS:   1  SEGMENT LENGTH:     115836      RECORD LENGTH: 524288

 Memory used in sort:       0.67 MW

 SORT1 READ      851288. AND WROTE      114210. INTEGRALS IN      1 RECORDS. CPU TIME:     0.41 SEC, REAL TIME:     0.53 SEC
 SORT2 READ      682143. AND WROTE      692076. INTEGRALS IN     30 RECORDS. CPU TIME:     0.03 SEC, REAL TIME:     0.05 SEC

 Node minimum:      114856.  Node maximum:      115836. integrals

 OPERATOR DM      FOR CENTER  0  COORDINATES:    0.000000    0.000000    0.000000


 **********************************************************************************************************************************
 DATASETS  * FILE   NREC   LENGTH (MB)   RECORD NAMES
              1      18       28.73       500      610      700      900      950      970     1000      129      960     1100   
                                          VAR    BASINP    GEOM    SYMINP    ZMAT    AOBASIS   BASIS     P2S    ABASIS      S 
                                         1400     1410     1200     1210     1080     1600     1650     1700   
                                           T        V       H0       H01     AOSYM     SMH    MOLCAS    OPER   

 PROGRAMS   *        TOTAL       INT
 CPU TIMES  *         2.58      1.87
 REAL TIME  *         4.81 SEC
 DISK USED  *        29.07 MB (local),      203.34 MB (total)
 GA USED    *         0.00 MB       (max)       0.00 MB       (current)
 **********************************************************************************************************************************


 Program * Restricted Hartree-Fock

 Orbital guess generated from atomic densities. Full valence occupancy:   14

 Initial occupancy:   9

 NELEC=   18   SYM=1   MS2= 0   THRE=1.0D-08   THRD=1.0D-06   THRG=1.0D-06  HFMA2=F  DIIS_START=2   DIIS_MAX=10   DIIS_INCORE=F

 Level shifts:    0.00 (CLOSED)    0.00 (OPEN)    0.30 (GAP_MIN)

 ITER           ETOT              DE          GRAD        DDIFF     DIIS  NEXP   TIME(IT)  TIME(TOT)  DIAG
   1     -115.01432745    -115.01432745     0.00D+00     0.16D+00     0     0       0.02      0.09    start
   2     -115.04280914      -0.02848168     0.10D-01     0.21D-01     1     0       0.07      0.16    diag
   3     -115.04868135      -0.00587221     0.48D-02     0.63D-02     2     0       0.06      0.22    diag
   4     -115.04913465      -0.00045330     0.10D-02     0.20D-02     3     0       0.07      0.29    diag
   5     -115.04915445      -0.00001980     0.18D-03     0.42D-03     4     0       0.07      0.36    diag
   6     -115.04915520      -0.00000075     0.31D-04     0.90D-04     5     0       0.08      0.44    diag
   7     -115.04915523      -0.00000003     0.64D-05     0.14D-04     6     0       0.08      0.52    diag
   8     -115.04915523      -0.00000000     0.20D-05     0.47D-05     7     0       0.08      0.60    fixocc
   9     -115.04915523      -0.00000000     0.44D-06     0.14D-05     8     0       0.07      0.67    diag
  10     -115.04915523      -0.00000000     0.73D-07     0.24D-06     9     0       0.13      0.80    diag/orth
  11     -115.04915523      -0.00000000     0.17D-07     0.33D-07     0     0       0.06      0.86    diag

 Final occupancy:   9

 !RHF STATE 1.1 Energy               -115.049155233469
  RHF One-electron energy            -237.806469474747
  RHF Two-electron energy              81.966787335639
  RHF Kinetic energy                  115.015606733559
  RHF Nuclear energy                   40.790526905639
  RHF Virial quotient                  -1.000291686501

 !RHF STATE 1.1 Dipole moment          -0.00002055    -0.58982990     0.35407920
 Dipole moment /Debye                  -0.00005222    -1.49919806     0.89997957

 Orbital energies:

           1.1          2.1          3.1          4.1          5.1          6.1          7.1          8.1          9.1         10.1
    -20.548051   -11.273117    -1.362010    -0.919501    -0.691542    -0.618092    -0.587826    -0.495825    -0.440484     0.184721

          11.1
      0.227716


 HOMO      9.1    -0.440484 =     -11.9862eV
 LUMO     10.1     0.184721 =       5.0265eV
 LUMO-HOMO         0.625205 =      17.0127eV

 Orbitals saved in record  2100.2


 **********************************************************************************************************************************
 DATASETS  * FILE   NREC   LENGTH (MB)   RECORD NAMES
              1      18       28.73       500      610      700      900      950      970     1000      129      960     1100   
                                          VAR    BASINP    GEOM    SYMINP    ZMAT    AOBASIS   BASIS     P2S    ABASIS      S 
                                         1400     1410     1200     1210     1080     1600     1650     1700   
                                           T        V       H0       H01     AOSYM     SMH    MOLCAS    OPER   

              2       4        0.47       700     1000      520     2100   
                                         GEOM     BASIS   MCVARS     RHF  

 PROGRAMS   *        TOTAL    HF-SCF       INT
 CPU TIMES  *         3.47      0.88      1.87
 REAL TIME  *         5.56 SEC
 DISK USED  *        29.40 MB (local),      205.31 MB (total)
 GA USED    *         0.00 MB       (max)       0.00 MB       (current)
 **********************************************************************************************************************************


 PROGRAM * CCSD (Closed-shell coupled cluster)     Authors: C. Hampel, H.-J. Werner, 1991, M. Deegan, P.J. Knowles, 1992


 Convergence thresholds:  THRVAR = 1.00D-12  THRDEN = 1.00D-08

 Using ITF CCSD gradient implementation

 Number of core orbitals:           2 (   2 )
 Number of closed-shell orbitals:   7 (   7 )
 Number of external orbitals:      39 (  39 )

 Molecular orbitals read from record     2100.2  Type=RHF/CANONICAL  

 Integral transformation finished. Total CPU:   4.45 sec, npass=  1  Memory used:   0.66 MW
  Reference energy                   -115.049155233469

  MP2 correlation energy               -0.337525530083
  MP2 total energy                   -115.386680763552

 ITER.      SQ.NORM     CORR.ENERGY   TOTAL ENERGY   ENERGY CHANGE        DEN1      VAR(S)    VAR(P)  DIIS     TIME
   1      1.10650502    -0.36043016  -115.40958539    -0.02290463    -0.01430859  9.37e-04  1.71e-03  1  1     5.45
   2      1.11334780    -0.36222321  -115.41137845    -0.00179306    -0.00747805  1.74e-05  2.42e-04  2  2    11.38
   3      1.11595220    -0.36244259  -115.41159783    -0.00021938    -0.00213057  2.54e-06  2.48e-05  3  3    17.09
   4      1.11695507    -0.36243462  -115.41158985     0.00000798    -0.00079111  7.11e-08  1.89e-06  4  4    23.82
   5      1.11718232    -0.36242321  -115.41157845     0.00001140    -0.00015905  2.22e-08  1.06e-07  5  5    30.84
   6      1.11721561    -0.36242088  -115.41157612     0.00000233    -0.00002446  6.80e-10  6.28e-09  6  0    36.42
   7      1.11721803    -0.36242035  -115.41157559     0.00000053    -0.00000255  1.58e-11  5.71e-10  6  1    43.44
   8      1.11721829    -0.36242031  -115.41157555     0.00000004    -0.00000026  1.29e-12  5.22e-11  6  2    50.22
   9      1.11721848    -0.36242031  -115.41157555     0.00000000    -0.00000013  1.17e-13  2.85e-12  6  3    57.35
  10      1.11721853    -0.36242031  -115.41157555     0.00000000    -0.00000003  4.86e-15  1.47e-13          64.04
 WARNING: Named clock 3265 does not exist. Cannot pop it.

 Norm of t1 vector:      0.04065851     S-energy:     -0.00000000   T1 diagnostic:  0.00768374

 Time per iteration:                      6.41 sec

 RESULTS
 =======

  Reference energy                   -115.049155233469
  CCSD correlation energy              -0.362420311738
 !CCSD total energy                  -115.411575545207

 Starting CP-CCSD iterations.   Author: W. Gyorffy (2012)

 ITER.      NRM1           NRM2      VAR(S)+VAR(P)   DIIS    TIME
   1     0.00109950     0.32714439     2.91e-04      1  1    5.90
   2     0.00101690     0.32492665     1.62e-05      2  2   11.81
   3     0.00096454     0.32459241     1.68e-06      3  3   17.84
   4     0.00094155     0.32443711     2.80e-07      4  4   23.93
   5     0.00093030     0.32440847     3.20e-08      5  5   30.50
   6     0.00092627     0.32440096     4.01e-09      6  0   36.56
   7     0.00092496     0.32439913     3.71e-10      6  1   42.75
   8     0.00092463     0.32439801     3.72e-11      6  2   49.27
   9     0.00092456     0.32439760     3.14e-12      6  3   55.76
  10     0.00092454     0.32439746     3.30e-13             61.93

 WARNING: Named clock 3265 does not exist. Cannot pop it.

 Time per iteration:                      6.19 sec

 CPHF start vector      0.2 not found

 Starting Coupled-perturbed Hartree-Fock, convergence threshold= 1.0D-06

 ITER   MIC  DIIS      VAR         VARC       CPU
   1     0     1    0.35D-02    0.74D-03     0.00
   2     4     2    0.13D-03    0.30D-04     0.01
   3     4     3    0.28D-05    0.46D-06     0.02
   4     1     4    0.19D-06    0.14D-07     0.02

 CPHF convergence reached in  4 macroiterations and    9 microiterations.   Accuracy: 1.8987D-07

 CPHF solution written to record  8500.2

 Dipole moments (unrelaxed):           -0.00001964    -0.54952389     0.28907035
 Orbital relaxation contribution:       0.00000033    -0.00355462     0.00564054
 !CCSD STATE 1.1 Dipole moment         -0.00001931    -0.55307851     0.29471090
 Dipole moment /Debye                  -0.00004907    -1.40578536     0.74908039

 CPU-time for coupled-perturbed hartree-fock:          0.07 sec

 Number of N-1 electron functions:               7
 Number of N-2 electron functions:              28
 Number of singly external CSFs:               273
 Number of doubly external CSFs:             37401
 Total number of CSFs:                       37675

 CCSD gradient info saved on record        55555.1




 **********************************************************************************************************************************
 DATASETS  * FILE   NREC   LENGTH (MB)   RECORD NAMES
              1      20       35.43       500      610      700      900      950      970     1000      129      960     1100   
                                          VAR    BASINP    GEOM    SYMINP    ZMAT    AOBASIS   BASIS     P2S    ABASIS      S 
                                         1400     1410     1200     1210     1080     1600     1650     1700     1380    55555   
                                           T        V       H0       H01     AOSYM     SMH    MOLCAS    OPER     JKOP     CCSD   

              2       5        0.53       700     1000      520     2100     8500   
                                         GEOM     BASIS   MCVARS     RHF     CPHF   

 PROGRAMS   *        TOTAL      CCSD    HF-SCF       INT
 CPU TIMES  *       169.34    165.82      0.88      1.87
 REAL TIME  *       191.86 SEC
 DISK USED  *        36.02 MB (local),      245.03 MB (total)
 SF USED    *        38.04 MB
 GA USED    *         0.00 MB       (max)       0.00 MB       (current)
 **********************************************************************************************************************************


 PROGRAM * OPT (Geometry optimization)     Authors: F. Eckert and H.-J. Werner


 BFGS update of hessian

 *** Long output written to logfile /home/lme/overlap_integral_gaussian/molpro_files/methanol/ccsd/vdz/methanol_vdz_ccsd.log ***


 Geometry optimization using default procedure for command CCSD

 Geometry written to block  1 of record 700

 Entering BMAT geometry-optimization, modelhes=F
 Optimization method: RF

 ITER.   ENERGY(OLD)    ENERGY(NEW)      DE          GRADMAX     GRADNORM    GRADRMS     STEPMAX     STEPLEN     STEPRMS   CPU-time
   1  -115.41157555  -115.41286760    -0.00129205  0.01571577  0.03113582  0.00733878  0.06549792  0.12187112  0.04975368    187.20
   2  -115.41286760  -115.41291836    -0.00005077  0.00322659  0.00473235  0.00111543  0.02172092  0.02624448  0.01071426    382.36
   3  -115.41291836  -115.41292085    -0.00000249  0.00077032  0.00103751  0.00024454  0.00462519  0.00699868  0.00285720    575.06
   4  -115.41292085  -115.41292094    -0.00000009  0.00014884  0.00020952  0.00004939  0.00059600  0.00096027  0.00039203    772.86
   5  -115.41292094  -115.41292095    -0.00000001  0.00005172  0.00007702  0.00001815  0.00023344  0.00038799  0.00015839    966.26
   6  -115.41292095  -115.41292095     0.00000000  0.00000988  0.00001435  0.00000338  0.00003662  0.00005797  0.00002367   1183.01
   7  -115.41292095  -115.41292095    -0.00000000  0.00000281  0.00000398  0.00000094  0.00000858  0.00001786  0.00000729   1397.93
   8  -115.41292095  -115.41292095    -0.00000000  0.00000060  0.00000099  0.00000023  0.00000307  0.00000617  0.00000252   1615.97
   9  -115.41292095  -115.41292095     0.00000000  0.00000013  0.00000022  0.00000005  0.00000201  0.00000319  0.00000130   1834.26
  10  -115.41292095  -115.41292095    -0.00000000  0.00000008  0.00000012  0.00000003  0.00000160  0.00000236  0.00000096   2046.00

 END OF GEOMETRY OPTIMIZATION.

 Geometry written to block  1 of record 700

 Recomputing wavefunction for reoriented structure

 Current geometry (xyz format, in Angstrom)

    6
 CCSD/VDZ  ENERGY=-115.41292095
 H          0.0000042551        1.0227067780        1.1047767929
 C         -0.0000000070       -0.0123602806        0.7242684159
 H          0.8991972958       -0.5235772406        1.1262642978
 H         -0.8992013014       -0.5235700391        1.1262645837
 O         -0.0000000080        0.0640023468       -0.6908821457
 H         -0.0000000399       -0.8441511777       -1.0162477040

 **********************************************************************************************************************************


 **********************************************************************************************************************************
 DATASETS  * FILE   NREC   LENGTH (MB)   RECORD NAMES
              1      20       35.43       500      610      700      900      950      970     1000      129      960     1100   
                                          VAR    BASINP    GEOM    SYMINP    ZMAT    AOBASIS   BASIS     P2S    ABASIS      S 
                                         1400     1410     1200     1210     1080     1600     1650     1700     1380    55555   
                                           T        V       H0       H01     AOSYM     SMH    MOLCAS    OPER     JKOP     CCSD   

              2       6        0.54       700     1000      520     2100     8500     9001   
                                         GEOM     BASIS   MCVARS     RHF     CPHF    DEN_MP2    

 PROGRAMS   *        TOTAL      OPTG      CCSD    HF-SCF       INT
 CPU TIMES  *      2394.35   2224.96    165.82      0.88      1.87
 REAL TIME  *      3918.73 SEC
 DISK USED  *        36.05 MB (local),      245.22 MB (total)
 SF USED    *        38.05 MB
 GA USED    *         0.00 MB       (max)       0.00 MB       (current)
 **********************************************************************************************************************************


 PROGRAM * HESSIAN

 Computing numerical hessian using default procedure for command CCSD

 Using no symmetry in wavefunction calculations

 Running default procedure: HF-SCF000  CCSD


 Numerically approximating hessian using central gradient differences

 Task list generated. Total number of displacements:     36


 Switching to mppx mode, nproc=  6

   30 tasks completed, CPU=47m 4s Elapsed=48m 49s

 All  36 tasks completed.  CPU=   3389.50 sec, Elapsed=   3496.70 sec.

 Switching back to mpp mode, nproc=  6


 CCSD hessian saved to record  5300.2

 PROGRAM * FREQUENCIES (Calculation of harmonic vibrational spectra for CCSD)


 Permanent Dipole Moment [debye]
 1-3    0.000001   -1.416427    0.810305

 Dipole Moment Norm    1.6318271 [debye]

 Dipole Moment Derivatives [debye/ang]
              1             2             3             4             5             6             7             8
    1    0.25781722   -0.00000369   -0.00000049    2.10975384   -0.00000085   -0.00000336   -0.70910031    0.46039774
    2   -0.00000415   -0.62439567   -0.18879296   -0.00000093    1.49221724   -0.17062798    0.44575842   -0.09348548
    3   -0.00000144   -0.37187130   -0.05280487   -0.00000133    0.02139834    3.99492498   -0.40033968    0.29434085
              9            10            11            12            13            14            15            16
    1   -0.26634438   -0.70910778   -0.46039299    0.26634621   -2.60976399    0.00000027    0.00000225    1.66036068
    2    0.10131544   -0.44575371   -0.09347930    0.10131391    0.00000190   -1.24179205    0.09653646   -0.00000153
    3   -0.41867364    0.40034278    0.29433789   -0.41867426   -0.00000020   -0.13750108   -4.30219363   -0.00000013
             17            18
    1   -0.00000048   -0.00000024
    2    0.56072022    0.06028214
    3   -0.10081102    1.19767144

 Projecting out rotations and translations

 Force Constants (Second Derivatives of the Energy) in [a.u.]
                             HX1         HY1         HZ1         CX2         CY2     
           HX1           0.0469045
           HY1           0.0000011   0.3160064
           HZ1           0.0000004   0.0916995   0.0944380
           CX2          -0.0511447  -0.0000010  -0.0000003   0.5661359
           CY2          -0.0000010  -0.2999207  -0.0706140   0.0000001   0.6155104
           CZ2          -0.0000004  -0.0857381  -0.0726783   0.0000000   0.0161904
           HX3           0.0009448  -0.0011922   0.0007092  -0.2257303   0.0975148
           HY3           0.0262509  -0.0122794   0.0091226   0.0965177  -0.1092571
           HZ3           0.0083864  -0.0036977   0.0048019  -0.0616316   0.0329254
           HX4           0.0009446   0.0011921  -0.0007091  -0.2257318  -0.0975138
           HY4          -0.0262510  -0.0122792   0.0091226  -0.0965167  -0.1092555
           HZ4          -0.0083865  -0.0036976   0.0048019   0.0616319   0.0329249
           OX5           0.0017416   0.0000000  -0.0000001  -0.0628989   0.0000000
           OY5           0.0000000   0.0057971  -0.0388463  -0.0000000  -0.0970228
           OZ5           0.0000000   0.0000072  -0.0229968  -0.0000000   0.0359873
           HX6           0.0006092  -0.0000000  -0.0000000  -0.0006303  -0.0000000
           HY6           0.0000000   0.0026758  -0.0004843  -0.0000000  -0.0000544
           HZ6           0.0000000   0.0014267  -0.0083667  -0.0000000  -0.0474141
                             CZ2         HX3         HY3         HZ3         HX4     
           CZ2           0.5111894
           HX3          -0.0653239   0.2372679
           HY3           0.0368483  -0.1072664   0.1083899
           HZ3          -0.0746375   0.0757245  -0.0442282   0.0926409
           HX4           0.0653242  -0.0214553  -0.0137605   0.0069703   0.2372696
           HY4           0.0368478   0.0137607   0.0080247  -0.0045047   0.1072653
           HZ4          -0.0746375  -0.0069703  -0.0045046   0.0057256  -0.0757248
           OX5           0.0000001   0.0087931  -0.0002676  -0.0293131   0.0087931
           OY5          -0.0149135  -0.0027285   0.0044940   0.0177356   0.0027284
           OZ5          -0.2668037  -0.0033655   0.0028797  -0.0303818   0.0033655
           HX6          -0.0000000   0.0001797  -0.0014741  -0.0001364   0.0001797
           HY6           0.0107650  -0.0000884   0.0006278   0.0017695   0.0000884
           HZ6          -0.0224324  -0.0007740  -0.0001178   0.0018508   0.0007740
                             HY4         HZ4         OX5         OY5         OZ5     
           HY4           0.1083882
           HZ4          -0.0442276   0.0926409
           OX5           0.0002675   0.0293132   0.0472922
           OY5           0.0044940   0.0177354  -0.0000000   0.5631913
           OZ5           0.0028797  -0.0303818  -0.0000001   0.1315642   0.4428036
           HX6           0.0014741   0.0001365  -0.0037211   0.0000000   0.0000000
           HY6           0.0006278   0.0017695   0.0000000  -0.4809537  -0.1733180
           HZ6          -0.0001178   0.0018508  -0.0000000  -0.1132754  -0.0922395
                             HX6         HY6         HZ6     
           HX6           0.0033827
           HY6          -0.0000000   0.4770767
           HZ6           0.0000000   0.1594983   0.1193370


 Atomic Masses
 1-6    1.007825   12.000000    1.007825    1.007825   15.994910    1.007825

 Mass weighted Second Derivative Matrix
                             HX1         HY1         HZ1         CX2         CY2     
           HX1           0.0465403
           HY1           0.0000011   0.3135529
           HZ1           0.0000004   0.0909875   0.0937048
           CX2          -0.0147068  -0.0000003  -0.0000001   0.0471780
           CY2          -0.0000003  -0.0862429  -0.0203052   0.0000000   0.0512925
           CZ2          -0.0000001  -0.0246542  -0.0208988   0.0000000   0.0013492
           HX3           0.0009375  -0.0011830   0.0007037  -0.0649093   0.0280406
           HY3           0.0260471  -0.0121841   0.0090517   0.0277539  -0.0314171
           HZ3           0.0083213  -0.0036690   0.0047646  -0.0177223   0.0094678
           HX4           0.0009373   0.0011828  -0.0007036  -0.0649097  -0.0280403
           HY4          -0.0260472  -0.0121839   0.0090517  -0.0277536  -0.0314167
           HZ4          -0.0083214  -0.0036689   0.0047647   0.0177224   0.0094676
           OX5           0.0004338   0.0000000  -0.0000000  -0.0045401   0.0000000
           OY5           0.0000000   0.0014439  -0.0096753  -0.0000000  -0.0070031
           OZ5           0.0000000   0.0000018  -0.0057277  -0.0000000   0.0025976
           HX6           0.0006045  -0.0000000  -0.0000000  -0.0001812  -0.0000000
           HY6           0.0000000   0.0026550  -0.0004806  -0.0000000  -0.0000156
           HZ6           0.0000000   0.0014156  -0.0083018  -0.0000000  -0.0136340
                             CZ2         HX3         HY3         HZ3         HX4     
           CZ2           0.0425991
           HX3          -0.0187840   0.2354257
           HY3           0.0105958  -0.1064336   0.1075483
           HZ3          -0.0214622   0.0751365  -0.0438848   0.0919216
           HX4           0.0187841  -0.0212887  -0.0136536   0.0069161   0.2354273
           HY4           0.0105957   0.0136539   0.0079624  -0.0044697   0.1064325
           HZ4          -0.0214622  -0.0069162  -0.0044696   0.0056812  -0.0751369
           OX5           0.0000000   0.0021901  -0.0000666  -0.0073009   0.0021901
           OY5          -0.0010765  -0.0006796   0.0011193   0.0044174   0.0006796
           OZ5          -0.0192580  -0.0008382   0.0007172  -0.0075671   0.0008382
           HX6          -0.0000000   0.0001784  -0.0014627  -0.0001354   0.0001783
           HY6           0.0030955  -0.0000877   0.0006230   0.0017557   0.0000877
           HZ6          -0.0064505  -0.0007680  -0.0001168   0.0018365   0.0007679
                             HY4         HZ4         OX5         OY5         OZ5     
           HY4           0.1075466
           HZ4          -0.0438842   0.0919216
           OX5           0.0000666   0.0073010   0.0029567
           OY5           0.0011193   0.0044173  -0.0000000   0.0352107
           OZ5           0.0007172  -0.0075671  -0.0000000   0.0082254   0.0276840
           HX6           0.0014627   0.0001354  -0.0009268   0.0000000   0.0000000
           HY6           0.0006229   0.0017557   0.0000000  -0.1197898  -0.0431678
           HZ6          -0.0001169   0.0018364  -0.0000000  -0.0282132  -0.0229738
                             HX6         HY6         HZ6     
           HX6           0.0033564
           HY6          -0.0000000   0.4733725
           HZ6           0.0000000   0.1582600   0.1184104


 Mass Weighted 2nd Derivative Matrix Eigenvalues
 1-10    0.000000    0.000000    0.000000    0.000000    0.000000    0.000000    0.004531    0.044476    0.046984    0.052803
 11-18    0.075584    0.084545    0.085032    0.087060    0.344850    0.357630    0.375636    0.566520

 Mass Weighted 2nd Derivative Matrix Eigenvectors
              1             2             3             4             5             6             7             8
    1   -0.00831959    0.06760070   -0.04533980    0.01582212   -0.44758415    0.38290822    0.28634953    0.00000025
    2   -0.01875059    0.17981913   -0.02681075    0.00384511    0.17092330    0.16430344   -0.00000116   -0.11755601
    3    0.19571495   -0.14135682    0.05244095    0.10069692   -0.07953468   -0.06171239    0.00000045    0.55694183
    4   -0.20081621   -0.44455978    0.25333249   -0.06983429   -0.09592063    0.60638171    0.00852058    0.00000008
    5   -0.03001757    0.47893545   -0.02583397    0.17237866    0.46225998    0.44495111    0.00000031    0.23361778
    6    0.58099385   -0.10270562   -0.00043465   -0.08534721    0.07245620    0.11892541    0.00000022    0.22023478
    7   -0.10957018   -0.30372111    0.07168582   -0.02107584    0.17159476    0.15358393   -0.10107176   -0.03477637
    8   -0.07763094   -0.03214548    0.04142958   -0.02057513    0.53324255    0.03124541   -0.21661364   -0.19945174
    9    0.19562623    0.14404112    0.06595169   -0.11255393    0.08275109   -0.04024411   -0.05071087   -0.20550764
   10   -0.10956973   -0.30371943    0.07168524   -0.02107566    0.17159187    0.15358505   -0.10106985    0.03477603
   11    0.03899537    0.39642000   -0.09723457    0.02305784   -0.18722692    0.30135654    0.21661436   -0.19945278
   12    0.11411293   -0.09334005   -0.11812856   -0.06081269    0.05854982    0.20417654    0.05071078   -0.20550460
   13    0.04341416    0.30339258    0.84608326   -0.23544160   -0.15675051   -0.02045168   -0.24428088    0.00000011
   14    0.11426405   -0.05487350    0.25648746    0.88219684   -0.01388340   -0.01014080   -0.00000015   -0.01806719
   15    0.67880302   -0.15137341    0.01494787   -0.06166971    0.05410458    0.10903434   -0.00000027   -0.34949054
   16   -0.03324880   -0.09731335    0.31570683   -0.09049424    0.32885342   -0.18575474    0.85955870   -0.00000063
   17    0.03727667   -0.04885257    0.08090637    0.26087390   -0.03508667   -0.03277792   -0.00000004   -0.21769116
   18    0.14640159    0.05991303   -0.04236895   -0.12553140    0.10178714    0.11175347   -0.00000004    0.48642526
              9            10            11            12            13            14            15            16
    1   -0.00000055   -0.24623015   -0.00000032    0.00001319    0.70916024   -0.00000321    0.00000123   -0.02389625
    2    0.05272379    0.00000050    0.00529805   -0.25529250    0.00000193   -0.07331198    0.28075023    0.00000135
    3   -0.06812513    0.00000241   -0.33369925    0.59204539   -0.00001120    0.19883623    0.09686396    0.00000045
    4    0.00000070    0.42614302   -0.00000032   -0.00000423   -0.19609311    0.00000018    0.00000097   -0.30977855
    5   -0.13541815    0.00000000   -0.37406060   -0.06256495    0.00000148   -0.12227216    0.09355141    0.00000120
    6    0.63187839   -0.00000120   -0.06538490   -0.35171373    0.00000763    0.15568829   -0.14967597   -0.00000032
    7    0.02024796   -0.17173253    0.11368686   -0.03964901    0.05755506    0.39641867    0.54787055    0.54232217
    8    0.07484447   -0.08151680    0.18859044    0.27301333    0.37320899    0.39658474   -0.29976339   -0.32332303
    9    0.26121255    0.56418482    0.10328824    0.38881193    0.29337350   -0.35869299    0.22420875    0.23038623
   10   -0.02024832   -0.17173148   -0.11368573    0.03965364    0.05754710   -0.39641605   -0.54787508    0.54232274
   11    0.07484503    0.08151615    0.18859196    0.27299801   -0.37321698    0.39659094   -0.29976030    0.32331760
   12    0.26120907   -0.56418795    0.10328645    0.38880020   -0.29339202   -0.35869024    0.22420982   -0.23038560
   13   -0.00000036   -0.22110326   -0.00000004   -0.00000073   -0.03504466    0.00000000   -0.00000002    0.00126201
   14    0.05592846    0.00000006    0.27998629   -0.01932298    0.00000021   -0.08416973   -0.00046339   -0.00000003
   15   -0.59763373    0.00000106   -0.08841432   -0.03248006    0.00000085    0.03105720   -0.00628419    0.00000001
   16   -0.00000008    0.00006622    0.00000044   -0.00000030   -0.00800698   -0.00000005    0.00000002    0.00315406
   17    0.04205605   -0.00000010   -0.20714819    0.00214854    0.00000012    0.03736794   -0.00219155    0.00000006
   18   -0.25381567    0.00000065    0.70496912   -0.02663019    0.00000000   -0.14240118   -0.00377155    0.00000000
             17            18
    1    0.00000355    0.00000005
    2    0.86266983    0.01316751
    3    0.30507464    0.00161774
    4   -0.00000095    0.00000000
    5   -0.29519887   -0.00874303
    6   -0.05301267    0.00409069
    7   -0.16300839   -0.00088795
    8    0.07391869    0.00066144
    9   -0.06499708    0.00344279
   10    0.16300811    0.00088789
   11    0.07391685    0.00066136
   12   -0.06499677    0.00344280
   13    0.00000002    0.00000000
   14    0.00574417   -0.22414750
   15    0.00146525   -0.09100669
   16   -0.00000005    0.00000000
   17   -0.01476774    0.90863908
   18    0.00200890    0.33993436

   Low Vibration      Wavenumber
        Nr             [1/cm] 
        1                0.00
        2                0.00
        3                0.00
        4                0.00
        5                0.00
        6                0.00

     Vibration        Wavenumber
        Nr             [1/cm] 
        1              346.00
        2             1084.10
        3             1114.24
        4             1181.22
        5             1413.25
        6             1494.68
        7             1498.98
        8             1516.75
        9             3018.70
       10             3074.12
       11             3150.56
       12             3869.12

 FREQUENCIES * CALCULATION OF NORMAL MODES FOR CCSD


 Atomic Coordinates

  Nr  Atom  Charge       X              Y              Z

   1   H     1.00    0.000008041    1.932635716    2.087725567
   2   C     6.00   -0.000000013   -0.023357545    1.368668947
   3   H     1.00    1.699236621   -0.989417590    2.128331067
   4   H     1.00   -1.699244190   -0.989403981    2.128331607
   5   O     8.00   -0.000000015    0.120946907   -1.305578040
   6   H     1.00   -0.000000075   -1.595214534   -1.920429835

 Gradient norm at reference geometry: 0.22575D-06

 Normal Modes

                              1 A         2 A         3 A         4 A         5 A  
 Wavenumbers [cm-1]          346.00     1084.10     1114.24     1181.22     1413.25
 Intensities [km/mol]        112.38       75.04       31.19        1.85       29.62
 Intensities [relative]      100.00       66.77       27.75        1.64       26.36
           HX1              0.28524     0.00000    -0.00000    -0.24527    -0.00000
           HY1             -0.00000    -0.11710     0.05252     0.00000     0.00528
           HZ1              0.00000     0.55478    -0.06786     0.00000    -0.33240
           CX2              0.00246     0.00000     0.00000     0.12302    -0.00000
           CY2              0.00000     0.06744    -0.03909     0.00000    -0.10798
           CZ2              0.00000     0.06358     0.18241    -0.00000    -0.01887
           HX3             -0.10068    -0.03464     0.02017    -0.17106     0.11324
           HY3             -0.21577    -0.19868     0.07455    -0.08120     0.18786
           HZ3             -0.05051    -0.20471     0.26020     0.56199     0.10289
           HX4             -0.10068     0.03464    -0.02017    -0.17106    -0.11324
           HY4              0.21577    -0.19868     0.07455     0.08120     0.18786
           HZ4              0.05051    -0.20471     0.26019    -0.56199     0.10288
           OX5             -0.06108     0.00000    -0.00000    -0.05528    -0.00000
           OY5             -0.00000    -0.00452     0.01398     0.00000     0.07001
           OZ5             -0.00000    -0.08739    -0.14943     0.00000    -0.02211
           HX6              0.85622    -0.00000    -0.00000     0.00007     0.00000
           HY6             -0.00000    -0.21684     0.04189    -0.00000    -0.20634
           HZ6             -0.00000     0.48453    -0.25283     0.00000     0.70223

                              6 A         7 A         8 A         9 A        10 A  
 Wavenumbers [cm-1]         1494.68     1498.98     1516.75     3018.70     3074.12
 Intensities [km/mol]          9.45        1.33        3.38       57.36       79.93
 Intensities [relative]        8.41        1.19        3.01       51.04       71.13
           HX1              0.00001     0.70640    -0.00000     0.00000    -0.02380
           HY1             -0.25430     0.00000    -0.07303     0.27966     0.00000
           HZ1              0.58974    -0.00001     0.19806     0.09649     0.00000
           CX2             -0.00000    -0.05661     0.00000     0.00000    -0.08943
           CY2             -0.01806     0.00000    -0.03530     0.02701     0.00000
           CZ2             -0.10153     0.00000     0.04494    -0.04321    -0.00000
           HX3             -0.03949     0.05733     0.39488     0.54574     0.54021
           HY3              0.27195     0.37176     0.39504    -0.29860    -0.32207
           HZ3              0.38730     0.29223    -0.35730     0.22334     0.22949
           HX4              0.03950     0.05732    -0.39487    -0.54574     0.54021
           HY4              0.27194    -0.37177     0.39505    -0.29859     0.32206
           HZ4              0.38729    -0.29225    -0.35730     0.22334    -0.22949
           OX5             -0.00000    -0.00876     0.00000    -0.00000     0.00032
           OY5             -0.00483     0.00000    -0.02105    -0.00012    -0.00000
           OZ5             -0.00812     0.00000     0.00777    -0.00157     0.00000
           HX6             -0.00000    -0.00798    -0.00000     0.00000     0.00314
           HY6              0.00214     0.00000     0.03722    -0.00218     0.00000
           HZ6             -0.02653     0.00000    -0.14185    -0.00376    -0.00000

                             11 A        12 A  
 Wavenumbers [cm-1]         3150.56     3869.12
 Intensities [km/mol]         35.43       21.72
 Intensities [relative]       31.53       19.33
           HX1              0.00000     0.00000
           HY1              0.85931     0.01312
           HZ1              0.30389     0.00161
           CX2             -0.00000    -0.00000
           CY2             -0.08522    -0.00252
           CZ2             -0.01530     0.00118
           HX3             -0.16237    -0.00088
           HY3              0.07363     0.00066
           HZ3             -0.06474     0.00343
           HX4              0.16237     0.00088
           HY4              0.07363     0.00066
           HZ4             -0.06474     0.00343
           OX5              0.00000     0.00000
           OY5              0.00144    -0.05605
           OZ5              0.00037    -0.02276
           HX6             -0.00000    -0.00000
           HY6             -0.01471     0.90510
           HZ6              0.00200     0.33861


 Normal Modes of low/zero frequencies

                                  1           2           3           4           5
 Wavenumbers [cm-1]            0.00        0.00        0.00        0.00        0.00
 Intensities [km/mol]          0.00        0.00        0.00        0.00        0.00
 Intensities [relative]        0.00        0.00        0.00        0.00        0.00
           HX1             -0.00829     0.06734    -0.04516     0.01576    -0.44584
           HY1             -0.01868     0.17912    -0.02671     0.00383     0.17026
           HZ1              0.19495    -0.14081     0.05224     0.10031    -0.07923
           CX2             -0.05797    -0.12833     0.07313    -0.02016    -0.02769
           CY2             -0.00867     0.13826    -0.00746     0.04976     0.13344
           CZ2              0.16772    -0.02965    -0.00013    -0.02464     0.02092
           HX3             -0.10914    -0.30254     0.07141    -0.02099     0.17093
           HY3             -0.07733    -0.03202     0.04127    -0.02050     0.53117
           HZ3              0.19487     0.14348     0.06570    -0.11212     0.08243
           HX4             -0.10914    -0.30254     0.07141    -0.02099     0.17092
           HY4              0.03884     0.39488    -0.09686     0.02297    -0.18650
           HZ4              0.11367    -0.09298    -0.11767    -0.06058     0.05832
           OX5              0.01086     0.07586     0.21155    -0.05887    -0.03919
           OY5              0.02857    -0.01372     0.06413     0.22058    -0.00347
           OZ5              0.16973    -0.03785     0.00374    -0.01542     0.01353
           HX6             -0.03312    -0.09693     0.31448    -0.09014     0.32757
           HY6              0.03713    -0.04866     0.08059     0.25986    -0.03495
           HZ6              0.14583     0.05968    -0.04220    -0.12504     0.10139

                                  6
 Wavenumbers [cm-1]            0.00
 Intensities [km/mol]          0.00
 Intensities [relative]        0.00
           HX1              0.38142
           HY1              0.16366
           HZ1             -0.06147
           CX2              0.17505
           CY2              0.12845
           CZ2              0.03433
           HX3              0.15299
           HY3              0.03112
           HZ3             -0.04009
           HX4              0.15299
           HY4              0.30018
           HZ4              0.20338
           OX5             -0.00511
           OY5             -0.00254
           OZ5              0.02726
           HX6             -0.18503
           HY6             -0.03265
           HZ6              0.11132


 Frequencies dumped to record   5400.2

 Zero point energy:  0.05185501 [H]    11380.86 [1/CM]      136.15 [KJ/MOL]
 Frequency information read from record  5400.2

 Recomputing wavefunction at initial geometry


 **********************************************************************************************************************************
 DATASETS  * FILE   NREC   LENGTH (MB)   RECORD NAMES
              1      20       35.43       500      610      700      900      950      970     1000      129      960     1100   
                                          VAR    BASINP    GEOM    SYMINP    ZMAT    AOBASIS   BASIS     P2S    ABASIS      S 
                                         1400     1410     1200     1210     1080     1600     1650     1700     1380    55555   
                                           T        V       H0       H01     AOSYM     SMH    MOLCAS    OPER     JKOP     CCSD   

              2       9        0.55       700     1000      520     2100     8500     9001     5300     5450     5400   
                                         GEOM     BASIS   MCVARS     RHF     CPHF    DEN_MP2   HESS     NMOD     FREQ   

 PROGRAMS   *        TOTAL      FREQ      OPTG      CCSD    HF-SCF       INT
 CPU TIMES  *      5934.36   3539.96   2224.96    165.82      0.88      1.87
 REAL TIME  *      7596.29 SEC
 DISK USED  *        76.21 MB (local),      485.62 MB (total)
 SF USED    *        38.05 MB
 GA USED    *         0.00 MB       (max)       0.00 MB       (current)
 **********************************************************************************************************************************

 Dump information in style MOLDEN to methanol_ccsd.molden                                                            

 Molecular orbitals read from record     2100.2  Type=RHF/CANONICAL (state 1.1)
 Occupation numbers read from record     2100.2  Type=RHF/RHF (state 1.1)
 Orbital energies read from record       2100.2  Type=RHF/CANONICAL (state 1.1)
 Redundancy group numbers read from rec  2100.2  Type=RHF/RHF (state 1.1)

 DUMP ORBITAL  1.1 AS ORBITAL    1  occ=    2.0000  eig=  -20.5527  GROUP=   2
 DUMP ORBITAL  2.1 AS ORBITAL    2  occ=    2.0000  eig=  -11.2795  GROUP=   2
 DUMP ORBITAL  3.1 AS ORBITAL    3  occ=    2.0000  eig=   -1.3518  GROUP=   2
 DUMP ORBITAL  4.1 AS ORBITAL    4  occ=    2.0000  eig=   -0.9161  GROUP=   2
 DUMP ORBITAL  5.1 AS ORBITAL    5  occ=    2.0000  eig=   -0.6825  GROUP=   2
 DUMP ORBITAL  6.1 AS ORBITAL    6  occ=    2.0000  eig=   -0.6110  GROUP=   2
 DUMP ORBITAL  7.1 AS ORBITAL    7  occ=    2.0000  eig=   -0.5847  GROUP=   2
 DUMP ORBITAL  8.1 AS ORBITAL    8  occ=    2.0000  eig=   -0.4957  GROUP=   2
 DUMP ORBITAL  9.1 AS ORBITAL    9  occ=    2.0000  eig=   -0.4422  GROUP=   2

 Total charge:      18.000000
 Frequency information read from record  5400.2

 **********************************************************************************************************************************

 CCSD/cc-pVDZ energy=   -115.412920952192

      OPTG(CCSD)            CCSD          HF-SCF
   -115.41292095   -115.41157555   -115.04915523
 **********************************************************************************************************************************
 Molpro calculation terminated
