
 Working directory              : /tmp/zwa/molpro.qC0u1lq2q9/
 Global scratch directory       : /tmp/zwa/molpro.qC0u1lq2q9/
 Wavefunction directory         : /home/zwa/wfu/
 Main file repository           : /tmp/zwa/molpro.qC0u1lq2q9/

 id        : liedlgroup

 Nodes     nprocs
 rh2-c724     6
 GA implementation: MPI file
 GA implementation (serial work in mppx): MPI file

 Using customized tuning parameters: mindgm=1; mindgv=20; mindgc=4; mindgr=1; noblas=0; minvec=7
 default implementation of scratch files=sf  


 Variables initialized (1015), CPU time= 0.01 sec
 memory,1000,m
 orient,mass
 geometry = {
  C,                 -5.13924038 ,   0.99999999  ,  0.00000000
  H,                 -4.78258595 ,  -0.00881002  ,  0.00000000
  H,                 -4.78256754 ,   1.50439818  ,  0.87365150
  H,                 -6.20924038 ,   1.00001317  ,  0.00000000
  O,                 -4.66256546 ,   1.67410224  , -1.16759033
  H,                 -4.03197131 ,   3.20418707  , -1.55668147
 }
 
 mass,iso
 basis=6-311g(d,p)
 {hf
 start,atden}
 
 {mp2}
 
 optg
 {frequencies, symm=auto,print=0,analytical}
 put,molden,methanolmp2.molden
 Commands initialized (834), CPU time= 0.01 sec, 672 directives.
 Default parameters read. Elapsed time= 0.09 sec

 Checking input...
 Passed
1


                                         ***  PROGRAM SYSTEM MOLPRO  ***
                                       Copyright, TTI GmbH Stuttgart, 2015
                                    Version 2022.2 linked Thu Sep 29 12:37:28 2022


 **********************************************************************************************************************************
 LABEL *                                                                                 
  (8 PROC) 64 bit mpp version                                                            DATE: 25-Aug-25          TIME: 11:35:43  
 **********************************************************************************************************************************

 SHA1:             51306cdc306ce2a111a2867affebcb289530e0a7
 **********************************************************************************************************************************

 Memory per process:      1000 MW
 Total memory per node:   6000 MW

 GA preallocation disabled
 GA check disabled

 Variable memory set to 1000.0 MW

 ZCENTRE=MASS


 Geometry recognized as XYZ



 Using masses of most abundant isotopes

 **********************************************************************************************************************************
 SETTING BASIS          =    6-311G(D,P)


 Recomputing integrals since basis changed


 Using spherical harmonics

 Library entry C      S 6-311G               selected for orbital group  1
 Library entry C      P 6-311G               selected for orbital group  1
 Library entry C      D 6-311G*              selected for orbital group  1
 Library entry H      S 6-311G               selected for orbital group  2
 Library entry H      P 6-311G**             selected for orbital group  2
 Library entry O      S 6-311G               selected for orbital group  3
 Library entry O      P 6-311G               selected for orbital group  3
 Library entry O      D 6-311G*              selected for orbital group  3


 PROGRAM * SEWARD (Integral evaluation for generally contracted gaussian basis sets)     Author: Roland Lindh, 1990

 Geometry written to block  1 of record 700

 Orientation using atomic masses  
 Molecule type: Asymmetric top
 Rotational constants:      20.6874951     21.6052430    122.8239524 GHz

 Point group  C1  



 ATOMIC COORDINATES

 NR  ATOM    CHARGE       X              Y              Z

   1  C       6.00   -0.000000035    0.099836165    1.443489822
   2  H       1.00    1.259749845   -1.242977841    2.279188915
   3  H       1.00    0.609257276    1.972306842    1.903023482
   4  H       1.00   -1.869006772   -0.194862219    2.156566816
   5  O       8.00    0.000000001   -0.214174341   -1.240512389
   6  H       1.00    0.000000050    1.675902415   -3.838339008

 Bond lengths in Bohr (Angstrom)

 1-2  2.022006970  1-3  2.022006947  1-4  2.022006954  1-5  2.702308359
     ( 1.070000009)     ( 1.069999996)     ( 1.070000000)     ( 1.430000001)

 Bond angles

  2-1-3  109.47120256   2-1-4  109.47123124   2-1-5  109.47120228   3-1-4  109.47121844

  3-1-5  109.47125079   4-1-5  109.47121850

 NUCLEAR CHARGE:                   18
 NUMBER OF PRIMITIVE AOS:          96
 NUMBER OF SYMMETRY AOS:           94
 NUMBER OF CONTRACTIONS:           60   (   60A   )
 NUMBER OF INNER CORE ORBITALS:     0   (    0A   )
 NUMBER OF OUTER CORE ORBITALS:     2   (    2A   )
 NUMBER OF VALENCE ORBITALS:       12   (   12A   )


 NUCLEAR REPULSION ENERGY   37.81236537


 Eigenvalues of metric

         1 0.926E-02 0.207E-01 0.209E-01 0.320E-01 0.413E-01 0.439E-01 0.528E-01 0.890E-01


 Contracted 2-electron integrals neglected if value below      1.0D-11
 AO integral compression algorithm  1   Integral accuracy      1.0D-11

     8.913 MB (compressed) written to integral file ( 50.7%)

     Node minimum: 1.049 MB, node maximum: 1.835 MB


 NUMBER OF SORTED TWO-ELECTRON INTEGRALS:     279990.     BUFFER LENGTH:  32768
 NUMBER OF SEGMENTS:   1  SEGMENT LENGTH:     279990      RECORD LENGTH: 524288

 Memory used in sort:       0.84 MW

 SORT1 READ     2093033. AND WROTE      258990. INTEGRALS IN      1 RECORDS. CPU TIME:     0.02 SEC, REAL TIME:     0.03 SEC
 SORT2 READ     1530587. AND WROTE     1675365. INTEGRALS IN     30 RECORDS. CPU TIME:     0.00 SEC, REAL TIME:     0.02 SEC

 Node minimum:      278465.  Node maximum:      279990. integrals

 OPERATOR DM      FOR CENTER  0  COORDINATES:    0.000000    0.000000    0.000000


 **********************************************************************************************************************************
 DATASETS  * FILE   NREC   LENGTH (MB)   RECORD NAMES
              1      18       28.78       500      610      700      900      950      970     1000      129      960     1100   
                                          VAR    BASINP    GEOM    SYMINP    ZMAT    AOBASIS   BASIS     P2S    ABASIS      S 
                                         1400     1410     1200     1210     1080     1600     1650     1700   
                                           T        V       H0       H01     AOSYM     SMH    MOLCAS    OPER   

 PROGRAMS   *        TOTAL       INT
 CPU TIMES  *         0.58      0.42
 REAL TIME  *         0.96 SEC
 DISK USED  *        29.12 MB (local),      204.96 MB (total)
 GA USED    *         0.00 MB       (max)       0.00 MB       (current)
 **********************************************************************************************************************************


 Program * Restricted Hartree-Fock

 Orbital guess generated from atomic densities.

 Initial occupancy:   9

 NELEC=   18   SYM=1   MS2= 0   THRE=1.0D-08   THRD=1.0D-06   THRG=1.0D-06  HFMA2=F  DIIS_START=2   DIIS_MAX=10   DIIS_INCORE=F

 Level shifts:    0.00 (CLOSED)    0.00 (OPEN)    0.30 (GAP_MIN)

 ITER           ETOT              DE          GRAD        DDIFF     DIIS  NEXP   TIME(IT)  TIME(TOT)  DIAG
   1     -114.77690553    -114.77690553     0.00D+00     0.57D-01     0     0       0.03      0.11    start
   2     -114.83734595      -0.06044042     0.12D-01     0.11D-01     1     0       0.04      0.15    diag
   3     -114.87429384      -0.03694789     0.11D-01     0.45D-02     2     0       0.05      0.20    diag
   4     -114.87879257      -0.00449873     0.17D-02     0.22D-02     3     0       0.04      0.24    diag
   5     -114.87958835      -0.00079578     0.10D-02     0.98D-03     4     0       0.04      0.28    diag
   6     -114.87971092      -0.00012257     0.23D-03     0.41D-03     5     0       0.05      0.33    diag
   7     -114.87974191      -0.00003099     0.11D-03     0.23D-03     6     0       0.04      0.37    diag
   8     -114.87974551      -0.00000359     0.33D-04     0.71D-04     7     0       0.04      0.41    fixocc
   9     -114.87974572      -0.00000021     0.91D-05     0.19D-04     8     0       0.04      0.45    diag
  10     -114.87974572      -0.00000001     0.29D-05     0.30D-05     9     0       0.08      0.53    diag/orth
  11     -114.87974572      -0.00000000     0.81D-06     0.10D-05     9     0       0.05      0.58    diag
  12     -114.87974572      -0.00000000     0.25D-06     0.41D-06     9     0       0.04      0.62    diag
  13     -114.87974572      -0.00000000     0.14D-06     0.15D-06     0     0       0.05      0.67    diag

 Final occupancy:   9

 !RHF STATE 1.1 Energy               -114.879745724884
  RHF One-electron energy            -232.127207995227
  RHF Two-electron energy              79.435096895801
  RHF Kinetic energy                  114.571853331179
  RHF Nuclear energy                   37.812365374543
  RHF Virial quotient                  -1.002687330132

 !RHF STATE 1.1 Dipole moment           0.02185972     0.56970047     0.11660383
 Dipole moment /Debye                   0.05556188     1.44803415     0.29637738

 Orbital energies:

           1.1          2.1          3.1          4.1          5.1          6.1          7.1          8.1          9.1         10.1
    -20.563149   -11.264024    -1.276592    -0.902705    -0.614595    -0.603325    -0.567095    -0.434900    -0.402123     0.011775

          11.1
      0.172074


 HOMO      9.1    -0.402123 =     -10.9423eV
 LUMO     10.1     0.011775 =       0.3204eV
 LUMO-HOMO         0.413898 =      11.2627eV

 Orbitals saved in record  2100.2


 **********************************************************************************************************************************
 DATASETS  * FILE   NREC   LENGTH (MB)   RECORD NAMES
              1      18       28.78       500      610      700      900      950      970     1000      129      960     1100   
                                          VAR    BASINP    GEOM    SYMINP    ZMAT    AOBASIS   BASIS     P2S    ABASIS      S 
                                         1400     1410     1200     1210     1080     1600     1650     1700   
                                           T        V       H0       H01     AOSYM     SMH    MOLCAS    OPER   

              2       4        0.49       700     1000      520     2100   
                                         GEOM     BASIS   MCVARS     RHF  

 PROGRAMS   *        TOTAL    HF-SCF       INT
 CPU TIMES  *         1.26      0.68      0.42
 REAL TIME  *         1.23 SEC
 DISK USED  *        29.56 MB (local),      207.60 MB (total)
 GA USED    *         0.00 MB       (max)       0.00 MB       (current)
 **********************************************************************************************************************************


 PROGRAM * MP2 (Closed-shell)     Authors: C. Hampel, H.-J. Werner, 1991, M. Deegan, P.J. Knowles, 1992


 Convergence thresholds:  THRVAR = 1.00D-12  THRDEN = 1.00D-08

 Number of core orbitals:           2 (   2 )
 Number of closed-shell orbitals:   7 (   7 )
 Number of external orbitals:      51 (  51 )

 Molecular orbitals read from record     2100.2  Type=RHF/CANONICAL  

 Number of N-1 electron functions:               7
 Number of N-2 electron functions:              28
 Number of singly external CSFs:               357
 Number of doubly external CSFs:             63903
 Total number of CSFs:                       64261

 Length of J-op  integral file:               0.00 MB
 Length of K-op  integral file:               0.25 MB

 Integral transformation finished. Total CPU:   0.02 sec, npass=  1  Memory used:   0.29 MW

 Memory needed for MP2:                      0.02 MW

 SCS-MP2 correlation energy:           -0.392245916010   (PS=  1.200000  PT=  0.333333)
 SCS-MP2 total energy:               -115.271991640894


  Reference energy                   -114.879745724884
  MP2 singlet pair energy              -0.257673189056
  MP2 triplet pair energy              -0.133454071837
  MP2 correlation energy               -0.391127260893

 !MP2 total energy                   -115.270872985776

 KEXT needed  1 integral passes. Memory used:   0.26 MW  CPU time:      2.65 sec

 CPHF start vector      0.2 not found

 Starting Coupled-perturbed Hartree-Fock, convergence threshold= 1.0D-06

 ITER   MIC  DIIS      VAR         VARC       CPU
   1     0     1    0.61D-01    0.18D-02     0.00
   2     7     2    0.47D-03    0.42D-03     0.01
   3     3     3    0.65D-04    0.78D-05     0.01
   4     7     4    0.21D-05    0.47D-06     0.02
   5     1     5    0.59D-06    0.16D-07     0.02

 CPHF convergence reached in  5 macroiterations and   18 microiterations.   Accuracy: 5.9411D-07

 CPHF solution written to record  4100.2

 Dipole moments (unrelaxed):            0.02256557     0.53400111     0.15206300
 Orbital relaxation contribution:       0.00630475    -0.06179827     0.00352012
 !MP2 STATE 1.1 Dipole moment           0.02887032     0.47220284     0.15558311
 Dipole moment /Debye                   0.07338103     1.20021991     0.39545283

 CPU-time for density and lagrangian:                  0.61 sec
 CPU-time for coupled-perturbed hartree-fock:          0.09 sec

 MP2 gradient info saved on record         5200.1


 **********************************************************************************************************************************
 DATASETS  * FILE   NREC   LENGTH (MB)   RECORD NAMES
              1      20       30.63       500      610      700      900      950      970     1000      129      960     1100   
                                          VAR    BASINP    GEOM    SYMINP    ZMAT    AOBASIS   BASIS     P2S    ABASIS      S 
                                         1400     1410     1200     1210     1080     1600     1650     1700     1380     5200   
                                           T        V       H0       H01     AOSYM     SMH    MOLCAS    OPER     JKOP      MP2  

              2       5        0.58       700     1000      520     2100     4100   
                                         GEOM     BASIS   MCVARS     RHF     CPHF   

 PROGRAMS   *        TOTAL       MP2    HF-SCF       INT
 CPU TIMES  *         4.97      3.71      0.68      0.42
 REAL TIME  *         2.90 SEC
 DISK USED  *        31.29 MB (local),      218.00 MB (total)
 SF USED    *         4.43 MB
 GA USED    *         0.00 MB       (max)       0.00 MB       (current)
 **********************************************************************************************************************************


 PROGRAM * OPT (Geometry optimization)     Authors: F. Eckert and H.-J. Werner


 BFGS update of hessian

 *** Long output written to logfile /home/zwa/Overlap_Integral_Project/overlap_integral_gaussian/molpro_files/methanol/methanolmp2/methanol.log ***


 Geometry optimization using default procedure for command MP2

 Geometry written to block  1 of record 700

 Making model hessian for cartesian coordinates

 Entering Rational Function Geometry Optimization

 ITER.   ENERGY(OLD)    ENERGY(NEW)      DE          GRADMAX     GRADNORM    GRADRMS     STEPMAX     STEPLEN     STEPRMS   CPU-time
   1  -115.27087299  -115.30225506    -0.03138208  0.07340450  0.11720735  0.00976728  0.22159126  0.30000000  0.12247449      6.98
   2  -115.30225506  -115.33033967    -0.02808460  0.07972126  0.13095349  0.01091279  0.22164579  0.30000000  0.12247449     15.20
   3  -115.33033967  -115.36210656    -0.03176690  0.10531184  0.16812872  0.01401073  0.16995183  0.30000000  0.12247449     23.06
   4  -115.36210656  -115.39977534    -0.03766878  0.10120507  0.16027286  0.01335607  0.20870481  0.30000000  0.12247449     32.01
   5  -115.39977534  -115.41883140    -0.01905606  0.07451839  0.11854114  0.00987843  0.18101477  0.30000000  0.12247449     38.46
   6  -115.41883140  -115.42947468    -0.01064328  0.03431494  0.06620726  0.00551727  0.19491684  0.30000000  0.12247449     45.94
   7  -115.42947468  -115.43141116    -0.00193648  0.03889406  0.05172780  0.00431065  0.21095320  0.30000000  0.12247449     52.70
   8  -115.43141116  -115.43491157    -0.00350041  0.04455820  0.07180907  0.00598409  0.06487482  0.13742807  0.05610478     60.11
   9  -115.43491157  -115.43521793    -0.00030636  0.00560326  0.00934843  0.00077904  0.06099563  0.07140079  0.02914925     67.82
  10  -115.43521793  -115.43547394    -0.00025601  0.00257719  0.00555227  0.00046269  0.15577061  0.16965301  0.06926055     76.02
  11  -115.43547394  -115.43568962    -0.00021568  0.01196547  0.01920386  0.00160032  0.01745129  0.02497259  0.01019502     84.06
  12  -115.43568962  -115.43611199    -0.00042237  0.00572773  0.00935399  0.00077950  0.17548713  0.18819718  0.07683118     91.24
  13  -115.43611199  -115.43630366    -0.00019167  0.00765676  0.01076721  0.00089727  0.09823562  0.10558711  0.04310576     98.70
  14  -115.43630366  -115.43635517    -0.00005151  0.00450234  0.00584904  0.00048742  0.08542312  0.08947834  0.03652938    106.14
  15  -115.43635517  -115.43634154     0.00001362  0.00637468  0.00871243  0.00072604  0.03710074  0.04638563  0.01893685    113.54
  16  -115.43634154  -115.43640121    -0.00005966  0.00864245  0.01066404  0.00088867  0.01401092  0.02161308  0.00882350    120.90
  17  -115.43640121  -115.43640246    -0.00000125  0.00092985  0.00121233  0.00010103  0.00237688  0.00317740  0.00129717    128.28
  18  -115.43640246  -115.43640263    -0.00000018  0.00033744  0.00040479  0.00003373  0.00287537  0.00312499  0.00127577    138.37
  19  -115.43640263  -115.43640265    -0.00000001  0.00008441  0.00010105  0.00000842  0.00132741  0.00139679  0.00057024    145.49

 END OF GEOMETRY OPTIMIZATION.

 Geometry written to block  1 of record 700

 Recomputing wavefunction for reoriented structure

 Current geometry (xyz format, in Angstrom)

    6
 MP2/6-311G(D,P)  ENERGY=-115.43640265
 C         -0.0000023246        0.0122330435        0.7253102441
 H          0.0001900604       -1.0128226262        1.0967135923
 H          0.8913201288        0.5178472706        1.1174788142
 H         -0.8914845487        0.5175315331        1.1174837631
 O          0.0000003632       -0.0635129198       -0.6904656315
 H         -0.0000037255        0.8397829328       -1.0096334502

 **********************************************************************************************************************************


 **********************************************************************************************************************************
 DATASETS  * FILE   NREC   LENGTH (MB)   RECORD NAMES
              1      20       30.63       500      610      700      900      950      970     1000      129      960     1100   
                                          VAR    BASINP    GEOM    SYMINP    ZMAT    AOBASIS   BASIS     P2S    ABASIS      S 
                                         1400     1410     1200     1210     1080     1600     1650     1700     1380     5200   
                                           T        V       H0       H01     AOSYM     SMH    MOLCAS    OPER     JKOP      MP2  

              2       6        0.60       700     1000      520     2100     4100     9001   
                                         GEOM     BASIS   MCVARS     RHF     CPHF    DEN_MP2    

 PROGRAMS   *        TOTAL      OPTG       MP2    HF-SCF       INT
 CPU TIMES  *       156.54    151.56      3.71      0.68      0.42
 REAL TIME  *        67.25 SEC
 DISK USED  *        31.31 MB (local),      219.84 MB (total)
 SF USED    *         4.86 MB
 GA USED    *         0.00 MB       (max)       0.00 MB       (current)
 **********************************************************************************************************************************


 PROGRAM * HESSIAN

 Computing numerical hessian using default procedure for command MP2

 Using no symmetry in wavefunction calculations

 Running default procedure: HF-SCF000  MP2


 Numerically approximating hessian using central gradient differences

 Task list generated. Total number of displacements:     36

   25 tasks completed, CPU=1m 25s Elapsed=35s

 All  36 tasks completed.  CPU=    105.24 sec, Elapsed=     45.04 sec.

 MP2 hessian saved to record  5300.2

 PROGRAM * FREQUENCIES (Calculation of harmonic vibrational spectra for MP2)


 Permanent Dipole Moment [debye]
   1-  3    0.000009    1.487792    0.919144

 Dipole Moment Norm    1.7488139 [debye]

 Dipole Moment Derivatives [debye/ang]
              1             2             3             4             5             6             7             8
    1    1.95077637    0.00007096   -0.00008277    0.30134192    0.00015282   -0.00001676   -0.63326228   -0.45059712
    2    0.00005580    1.34249689    0.20867721    0.00018052   -0.57937621    0.16599157   -0.45039304   -0.04594571
    3   -0.00000333   -0.10225032    3.84582008   -0.00007235    0.37299492    0.00366834   -0.41655583   -0.28985962
              9            10            11            12            13            14            15            16
    1   -0.25764264   -0.63355239    0.45036785    0.25769566   -2.71165600   -0.00001849    0.00005254    1.72602741
    2   -0.11351779    0.45016929   -0.04565640   -0.11343499   -0.00008413   -1.25204931   -0.00334639    0.00007166
    3   -0.39007396    0.41665635   -0.28971296   -0.39008670   -0.00001713    0.30327405   -4.31549775   -0.00000771
             17            18
    1    0.00002400   -0.00000604
    2    0.58012699   -0.14451518
    3    0.00564582    1.24597889

 Projecting out rotations and translations

 Force Constants (Second Derivatives of the Energy) in [a.u.]
                             CX1         CY1         CZ1         HX2         HY2     
           CX1           0.5812689
           CY1          -0.0000177   0.6263295
           CZ1          -0.0000106  -0.0170591   0.5055075
           HX2          -0.0523368   0.0000492  -0.0000160   0.0480534
           HY2           0.0000480  -0.3075249   0.0848218  -0.0000515   0.3234574
           HZ2          -0.0000135   0.0712599  -0.0728475   0.0000165  -0.0920475
           HX3          -0.2322736  -0.1001785  -0.0646480   0.0010320   0.0013923
           HY3          -0.0989547  -0.1117458  -0.0364245  -0.0269039  -0.0123437
           HZ3          -0.0620235  -0.0333084  -0.0752521   0.0086090   0.0040323
           HX4          -0.2323576   0.1001466   0.0646708   0.0010226  -0.0013876
           HY4           0.0989242  -0.1116823  -0.0364066   0.0269081  -0.0123346
           HZ4           0.0620473  -0.0332936  -0.0752532  -0.0086102   0.0040293
           OX5          -0.0642371   0.0000002   0.0000047   0.0017643  -0.0000016
           OY5           0.0000002  -0.0956827   0.0154817  -0.0000015   0.0061169
           OZ5           0.0000005  -0.0327062  -0.2590368   0.0000004   0.0005569
           HX6          -0.0000637   0.0000002  -0.0000009   0.0004645   0.0000004
           HY6           0.0000000   0.0003062  -0.0104133  -0.0000004   0.0026289
           HZ6          -0.0000003   0.0451074  -0.0231179   0.0000003  -0.0013927
                             HZ2         HX3         HY3         HZ3         HX4     
           HZ2           0.0958865
           HX3           0.0006484   0.2434371
           HY3          -0.0095309   0.1097369   0.1108632
           HZ3           0.0049916   0.0759336   0.0442694   0.0939823
           HX4          -0.0006448  -0.0214478   0.0141551   0.0074882   0.2435290
           HY4          -0.0095312  -0.0141663   0.0083560   0.0046073  -0.1097002
           HZ4           0.0049919  -0.0074897   0.0046044   0.0059187  -0.0759589
           OX5          -0.0000050   0.0093065   0.0005306  -0.0297046   0.0093081
           OY5           0.0394417   0.0032674   0.0043628  -0.0174635  -0.0032661
           OZ5          -0.0247534  -0.0035368  -0.0033743  -0.0312564   0.0035378
           HX6          -0.0000016  -0.0000541   0.0014360  -0.0003026  -0.0000543
           HY6           0.0004080  -0.0000518   0.0005075  -0.0021370   0.0000522
           HZ6          -0.0082691  -0.0009075   0.0004558   0.0016159   0.0009070
                             HY4         HZ4         OX5         OY5         OZ5     
           HY4           0.1107925
           HZ4           0.0442486   0.0939861
           OX5          -0.0005304   0.0297082   0.0475476
           OY5           0.0043620  -0.0174524  -0.0000003   0.5774648
           OZ5          -0.0033743  -0.0312580  -0.0000029  -0.1376987   0.4364395
           HX6          -0.0014354   0.0003034  -0.0036893   0.0000002   0.0000010
           HY6           0.0005065  -0.0021363   0.0000014  -0.4966238   0.1765965
           HZ6           0.0004562   0.0016144  -0.0000003   0.1176912  -0.0901349
                             HX6         HY6         HZ6     
           HX6           0.0033969
           HY6          -0.0000014   0.4926747
           HZ6           0.0000008  -0.1623180   0.1182916


 Atomic Masses
   1-  6   12.000000    1.007825    1.007825    1.007825   15.994910    1.007825

 Mass weighted Second Derivative Matrix
                             CX1         CY1         CZ1         HX2         HY2     
           CX1           0.0484391
           CY1          -0.0000015   0.0521941
           CZ1          -0.0000009  -0.0014216   0.0421256
           HX2          -0.0150496   0.0000142  -0.0000046   0.0476803
           HY2           0.0000138  -0.0884295   0.0243907  -0.0000511   0.3209460
           HZ2          -0.0000039   0.0204909  -0.0209475   0.0000164  -0.0913329
           HX3          -0.0667908  -0.0288066  -0.0185897   0.0010240   0.0013815
           HY3          -0.0284547  -0.0321327  -0.0104739  -0.0266951  -0.0122479
           HZ3          -0.0178350  -0.0095779  -0.0216389   0.0085421   0.0040010
           HX4          -0.0668150   0.0287974   0.0185962   0.0010147  -0.0013768
           HY4           0.0284459  -0.0321145  -0.0104688   0.0266992  -0.0122389
           HZ4           0.0178418  -0.0095736  -0.0216392  -0.0085434   0.0039980
           OX5          -0.0046367   0.0000000   0.0000003   0.0004394  -0.0000004
           OY5           0.0000000  -0.0069064   0.0011175  -0.0000004   0.0015235
           OZ5           0.0000000  -0.0023607  -0.0186973   0.0000001   0.0001387
           HX6          -0.0000183   0.0000000  -0.0000003   0.0004609   0.0000004
           HY6           0.0000000   0.0000880  -0.0029944  -0.0000004   0.0026085
           HZ6          -0.0000001   0.0129707  -0.0066476   0.0000003  -0.0013819
                             HZ2         HX3         HY3         HZ3         HX4     
           HZ2           0.0951420
           HX3           0.0006434   0.2415470
           HY3          -0.0094569   0.1088849   0.1100025
           HZ3           0.0049529   0.0753440   0.0439257   0.0932526
           HX4          -0.0006398  -0.0212813   0.0140452   0.0074300   0.2416382
           HY4          -0.0094572  -0.0140563   0.0082911   0.0045715  -0.1088485
           HZ4           0.0049531  -0.0074315   0.0045687   0.0058728  -0.0753692
           OX5          -0.0000013   0.0023179   0.0001322  -0.0073984   0.0023183
           OY5           0.0098236   0.0008138   0.0010866  -0.0043496  -0.0008135
           OZ5          -0.0061653  -0.0008809  -0.0008404  -0.0077849   0.0008811
           HX6          -0.0000016  -0.0000537   0.0014249  -0.0003003  -0.0000539
           HY6           0.0004048  -0.0000514   0.0005035  -0.0021204   0.0000518
           HZ6          -0.0082049  -0.0009004   0.0004523   0.0016033   0.0009000
                             HY4         HZ4         OX5         OY5         OZ5     
           HY4           0.1099322
           HZ4           0.0439050   0.0932564
           OX5          -0.0001321   0.0073993   0.0029727
           OY5           0.0010864  -0.0043468  -0.0000000   0.0361030
           OZ5          -0.0008404  -0.0077853  -0.0000002  -0.0086089   0.0272861
           HX6          -0.0014243   0.0003010  -0.0009189   0.0000001   0.0000002
           HY6           0.0005026  -0.0021197   0.0000003  -0.1236927   0.0439844
           HZ6           0.0004526   0.0016019  -0.0000001   0.0293130  -0.0224496
                             HX6         HY6         HZ6     
           HX6           0.0033705
           HY6          -0.0000014   0.4888495
           HZ6           0.0000008  -0.1610577   0.1173731


 Mass Weighted 2nd Derivative Matrix Eigenvalues
   1- 10    0.000000    0.000000    0.000000    0.000000    0.000000    0.000000    0.004552    0.044861    0.046989    0.054197
  11- 18    0.074545    0.087157    0.087209    0.089450    0.350865    0.365874    0.383567    0.582846

 Mass Weighted 2nd Derivative Matrix Eigenvectors
              1             2             3             4             5             6             7             8
    1    0.82633319   -0.01734532    0.02412590   -0.00400833    0.02344122    0.04364529    0.00749391   -0.00001913
    2   -0.04641101    0.04498703    0.06773942   -0.04195956    0.08300359    0.81069892   -0.00000997    0.15115696
    3   -0.01937106   -0.05472977    0.34892189   -0.28479129    0.40073939   -0.08923687    0.00000917   -0.44309969
    4    0.29405599    0.50466075   -0.01885772   -0.10196439    0.02325221   -0.01725525    0.28853827   -0.00000344
    5   -0.01606316    0.00773508   -0.02508192   -0.04102710    0.05187114    0.28938741    0.00005287   -0.08588368
    6   -0.01285420   -0.03075883   -0.02227389   -0.16215286    0.19289893    0.12441989    0.00001565   -0.47350589
    7    0.29966003   -0.25644682    0.03304680   -0.02423731   -0.05909325    0.03342148   -0.10104367    0.02215375
    8   -0.01764154    0.45053692   -0.05751986   -0.08942145    0.10015215    0.26305521    0.21684389   -0.15172208
    9   -0.13700238   -0.00849057    0.14136928    0.06952483    0.16777169   -0.10931909   -0.04886995    0.09159385
   10    0.29966028   -0.25628982    0.03303631   -0.02425451   -0.05907719    0.03341113   -0.10096453   -0.02212983
   11   -0.01477612   -0.43594119    0.00237462    0.00416865    0.00667127    0.32182706   -0.21688356   -0.15175755
   12    0.13291081   -0.00853859    0.18255662   -0.15606628   -0.01120280   -0.09061083    0.04886956    0.09155396
   13    0.09961143    0.13015713   -0.11270683    0.69314597    0.60917421   -0.01859838   -0.24384974    0.00000570
   14   -0.01390349    0.13391722    0.75712456    0.38978278   -0.32644214    0.10906111    0.00000424    0.01436502
   15   -0.02448871   -0.06757214    0.36651287   -0.35224070    0.48525358   -0.05878508   -0.00001170    0.55210417
   16   -0.02186587   -0.41647360   -0.00532452    0.26179265    0.13759357    0.02176817    0.85906164    0.00002281
   17   -0.00124464    0.03825209    0.22846944    0.12264045   -0.10583808   -0.01941682    0.00000429   -0.18945050
   18    0.00020827   -0.00383332    0.20073212   -0.01823502    0.05417766   -0.14718777   -0.00000027   -0.38014670
              9            10            11            12            13            14            15            16
    1    0.00002237   -0.42282159   -0.00000736   -0.00000004   -0.19538607   -0.00003930   -0.00026427   -0.31114307
    2    0.20946484   -0.00000800    0.37727512    0.06288777   -0.00001719    0.12623582   -0.08913714   -0.00005580
    3    0.50824811    0.00004141   -0.08806337   -0.33258780   -0.00001439    0.16865239   -0.14603257    0.00014700
    4   -0.00002890    0.24872992   -0.00003761   -0.00006850    0.70821681   -0.00000168    0.00003254   -0.02378780
    5   -0.09371027    0.00003023   -0.00452782    0.25358430    0.00013667    0.06165447   -0.29516022    0.00049718
    6   -0.28023208   -0.00008957   -0.34491821    0.60955852   -0.00000855    0.16407859    0.09966840   -0.00017156
    7    0.03439451    0.16942859    0.10681051   -0.01880446    0.05839764    0.39707458    0.54774318    0.54345731
    8   -0.14251680   -0.08393319   -0.19269625   -0.28747371   -0.37307880   -0.38719331    0.29945142    0.32256367
    9    0.31173538   -0.56561518    0.12393827    0.37326455    0.29475368   -0.37833651    0.21884854    0.22626013
   10   -0.03440162    0.16940517   -0.10676662    0.01890290    0.05825432   -0.39693874   -0.54687111    0.54445022
   11   -0.14256058    0.08392491   -0.19278343   -0.28748882    0.37306337   -0.38732267    0.29868040   -0.32286989
   12    0.31156594    0.56577593    0.12387145    0.37326351   -0.29471559   -0.37828951    0.21844938   -0.22662414
   13   -0.00001126    0.21872368    0.00000163   -0.00000532   -0.03517202    0.00000194    0.00000099    0.00189238
   14   -0.05608148    0.00000111   -0.27809852    0.02799157   -0.00001613    0.07759622    0.00014216    0.00000290
   15   -0.42012482   -0.00005076   -0.07360223   -0.03979379    0.00000118    0.03372441   -0.00712089    0.00000636
   16    0.00000370    0.00008302    0.00001260   -0.00000862   -0.01054571   -0.00000630    0.00000334    0.00198018
   17   -0.12057962    0.00000123    0.19606258   -0.00713707    0.00000234   -0.03185965    0.00404108   -0.00000997
   18   -0.42314770   -0.00001183    0.69419948   -0.04991922    0.00001539   -0.12376069   -0.00469408    0.00000298
             17            18
    1    0.00014035   -0.00000002
    2   -0.29732050   -0.00740852
    3    0.04916088   -0.00351133
    4   -0.00015454   -0.00000214
    5    0.85987169    0.01227129
    6   -0.29880046   -0.00183053
    7    0.17132325   -0.00003331
    8    0.07859660   -0.00016046
    9    0.06747743   -0.00414676
   10   -0.17164958    0.00003584
   11    0.07871247   -0.00016317
   12    0.06760502   -0.00414652
   13   -0.00000135    0.00000057
   14    0.00550893   -0.22521217
   15   -0.00088569    0.08938034
   16    0.00000196   -0.00000262
   17   -0.01318503    0.91081827
   18   -0.00238946   -0.33383397

   Low Vibration      Wavenumber
        Nr             [1/cm] 
        1                0.00
        2                0.00
        3                0.00
        4                0.00
        5                0.00
        6                0.00

     Vibration        Wavenumber
        Nr             [1/cm] 
        1              346.82
        2             1088.78
        3             1114.30
        4             1196.72
        5             1403.50
        6             1517.59
        7             1518.04
        8             1537.43
        9             3044.91
       10             3109.35
       11             3183.65
       12             3924.47

 FREQUENCIES * CALCULATION OF NORMAL MODES FOR MP2


 Atomic Coordinates

  Nr  Atom  Charge       X              Y              Z

   1   C     6.00   -0.000004393    0.023117102    1.370637717
   2   H     1.00    0.000359162   -1.913957376    2.072488327
   3   H     1.00    1.684350933    0.978589516    2.111728909
   4   H     1.00   -1.684661641    0.977992858    2.111738261
   5   O     8.00    0.000000686   -0.120022024   -1.304790942
   6   H     1.00   -0.000007040    1.586959747   -1.907930707

 Gradient norm at reference geometry: 0.19096D-03

 Normal Modes

                              1 A         2 A         3 A         4 A         5 A  
 Wavenumbers [cm-1]          346.82     1088.78     1114.30     1196.72     1403.50
 Intensities [km/mol]        120.84      108.40        2.86        1.08       23.14
 Intensities [relative]      100.00       89.71        2.37        0.89       19.15
           CX1              0.00216    -0.00001     0.00001    -0.12206    -0.00000
           CY1             -0.00000     0.04364     0.06047    -0.00000     0.10891
           CZ1              0.00000    -0.12791     0.14672     0.00001    -0.02542
           HX2              0.28742    -0.00000    -0.00003     0.24776    -0.00004
           HY2              0.00005    -0.08555    -0.09335     0.00003    -0.00451
           HZ2              0.00002    -0.47166    -0.27914    -0.00009    -0.34358
           HX3             -0.10065     0.02207     0.03426     0.16877     0.10640
           HY3              0.21600    -0.15113    -0.14196    -0.08361    -0.19195
           HZ3             -0.04868     0.09124     0.31052    -0.56342     0.12346
           HX4             -0.10057    -0.02204    -0.03427     0.16875    -0.10635
           HY4             -0.21604    -0.15117    -0.14201     0.08360    -0.19203
           HZ4              0.04868     0.09120     0.31035     0.56358     0.12339
           OX5             -0.06097     0.00000    -0.00000     0.05469     0.00000
           OY5              0.00000     0.00359    -0.01402     0.00000    -0.06954
           OZ5             -0.00000     0.13805    -0.10505    -0.00001    -0.01840
           HX6              0.85572     0.00002     0.00000     0.00008     0.00001
           HY6              0.00000    -0.18871    -0.12011     0.00000     0.19530
           HZ6             -0.00000    -0.37867    -0.42150    -0.00001     0.69150

                              6 A         7 A         8 A         9 A        10 A  
 Wavenumbers [cm-1]         1517.59     1518.04     1537.43     3044.91     3109.35
 Intensities [km/mol]          7.09        2.01        3.73       55.31       68.42
 Intensities [relative]        5.87        1.66        3.09       45.77       56.62
           CX1             -0.00000    -0.05640    -0.00001    -0.00008    -0.08982
           CY1              0.01815    -0.00000     0.03644    -0.02573    -0.00002
           CZ1             -0.09601    -0.00000     0.04869    -0.04216     0.00004
           HX2             -0.00007     0.70546    -0.00000     0.00003    -0.02370
           HY2              0.25260     0.00014     0.06141    -0.29401     0.00050
           HZ2              0.60719    -0.00001     0.16344     0.09928    -0.00017
           HX3             -0.01873     0.05817     0.39553     0.54561     0.54134
           HY3             -0.28636    -0.37163    -0.38569     0.29829     0.32131
           HZ3              0.37181     0.29361    -0.37686     0.21800     0.22538
           HX4              0.01883     0.05803    -0.39539    -0.54474     0.54233
           HY4             -0.28637     0.37161    -0.38582     0.29752    -0.32161
           HZ4              0.37181    -0.29357    -0.37682     0.21760    -0.22574
           OX5             -0.00000    -0.00879     0.00000     0.00000     0.00047
           OY5              0.00700    -0.00000     0.01940     0.00004     0.00000
           OZ5             -0.00995     0.00000     0.00843    -0.00178     0.00000
           HX6             -0.00001    -0.01050    -0.00001     0.00000     0.00197
           HY6             -0.00711     0.00000    -0.03174     0.00403    -0.00001
           HZ6             -0.04973     0.00002    -0.12328    -0.00468     0.00000

                             11 A        12 A  
 Wavenumbers [cm-1]         3183.65     3924.47
 Intensities [km/mol]         30.87       28.42
 Intensities [relative]       25.55       23.52
           CX1              0.00004    -0.00000
           CY1             -0.08583    -0.00214
           CZ1              0.01419    -0.00101
           HX2             -0.00015    -0.00000
           HY2              0.85653     0.01222
           HZ2             -0.29764    -0.00182
           HX3              0.17066    -0.00003
           HY3              0.07829    -0.00016
           HZ3              0.06721    -0.00413
           HX4             -0.17098     0.00004
           HY4              0.07841    -0.00016
           HZ4              0.06734    -0.00413
           OX5             -0.00000     0.00000
           OY5              0.00138    -0.05631
           OZ5             -0.00022     0.02235
           HX6              0.00000    -0.00000
           HY6             -0.01313     0.90728
           HZ6             -0.00238    -0.33254


 Normal Modes of low/zero frequencies

                                  1           2           3           4           5
 Wavenumbers [cm-1]            0.00        0.00        0.00        0.00        0.00
 Intensities [km/mol]          0.00        0.00        0.00        0.00        0.00
 Intensities [relative]        0.00        0.00        0.00        0.00        0.00
           CX1              0.23854    -0.00501     0.00696    -0.00116     0.00677
           CY1             -0.01340     0.01299     0.01955    -0.01211     0.02396
           CZ1             -0.00559    -0.01580     0.10073    -0.08221     0.11568
           HX2              0.29291     0.50270    -0.01878    -0.10157     0.02316
           HY2             -0.01600     0.00770    -0.02498    -0.04087     0.05167
           HZ2             -0.01280    -0.03064    -0.02219    -0.16152     0.19215
           HX3              0.29849    -0.25545     0.03292    -0.02414    -0.05886
           HY3             -0.01757     0.44878    -0.05730    -0.08907     0.09976
           HZ3             -0.13647    -0.00846     0.14082     0.06925     0.16712
           HX4              0.29849    -0.25529     0.03291    -0.02416    -0.05885
           HY4             -0.01472    -0.43425     0.00237     0.00415     0.00665
           HZ4              0.13239    -0.00851     0.18185    -0.15546    -0.01116
           OX5              0.02491     0.03254    -0.02818     0.17331     0.15232
           OY5             -0.00348     0.03348     0.18931     0.09746    -0.08162
           OZ5             -0.00612    -0.01690     0.09164    -0.08807     0.12133
           HX6             -0.02178    -0.41485    -0.00530     0.26077     0.13706
           HY6             -0.00124     0.03810     0.22758     0.12216    -0.10543
           HZ6              0.00021    -0.00382     0.19995    -0.01816     0.05397

                                  6
 Wavenumbers [cm-1]            0.00
 Intensities [km/mol]          0.00
 Intensities [relative]        0.00
           CX1              0.01260
           CY1              0.23403
           CZ1             -0.02576
           HX2             -0.01719
           HY2              0.28826
           HZ2              0.12394
           HX3              0.03329
           HY3              0.26203
           HZ3             -0.10889
           HX4              0.03328
           HY4              0.32058
           HZ4             -0.09026
           OX5             -0.00465
           OY5              0.02727
           OZ5             -0.01470
           HX6              0.02168
           HY6             -0.01934
           HZ6             -0.14662


 Frequencies dumped to record   5400.2

 Zero point energy:  0.05236497 [H]    11492.78 [1/CM]      137.48 [KJ/MOL]
 Frequency information read from record  5400.2

 Recomputing wavefunction at initial geometry


 **********************************************************************************************************************************
 DATASETS  * FILE   NREC   LENGTH (MB)   RECORD NAMES
              1      20       30.63       500      610      700      900      950      970     1000      129      960     1100   
                                          VAR    BASINP    GEOM    SYMINP    ZMAT    AOBASIS   BASIS     P2S    ABASIS      S 
                                         1400     1410     1200     1210     1080     1600     1650     1700     1380     5200   
                                           T        V       H0       H01     AOSYM     SMH    MOLCAS    OPER     JKOP      MP2  

              2       9        0.61       700     1000      520     2100     4100     9001     5300     5450     5400   
                                         GEOM     BASIS   MCVARS     RHF     CPHF    DEN_MP2   HESS     NMOD     FREQ   

 PROGRAMS   *        TOTAL      FREQ      OPTG       MP2    HF-SCF       INT
 CPU TIMES  *       267.51    110.97    151.56      3.71      0.68      0.42
 REAL TIME  *       115.32 SEC
 DISK USED  *        58.48 MB (local),      381.59 MB (total)
 SF USED    *         4.87 MB
 GA USED    *         0.00 MB       (max)       0.00 MB       (current)
 **********************************************************************************************************************************

 Dump information in style MOLDEN to methanolmp2.molden                                                              

 Molecular orbitals read from record     2100.2  Type=RHF/CANONICAL (state 1.1)
 Occupation numbers read from record     2100.2  Type=RHF/RHF (state 1.1)
 Orbital energies read from record       2100.2  Type=RHF/CANONICAL (state 1.1)
 Redundancy group numbers read from rec  2100.2  Type=RHF/RHF (state 1.1)

 DUMP ORBITAL  1.1 AS ORBITAL    1  occ=    2.0000  eig=  -20.5457  GROUP=   2
 DUMP ORBITAL  2.1 AS ORBITAL    2  occ=    2.0000  eig=  -11.2704  GROUP=   2
 DUMP ORBITAL  3.1 AS ORBITAL    3  occ=    2.0000  eig=   -1.3539  GROUP=   2
 DUMP ORBITAL  4.1 AS ORBITAL    4  occ=    2.0000  eig=   -0.9220  GROUP=   2
 DUMP ORBITAL  5.1 AS ORBITAL    5  occ=    2.0000  eig=   -0.6872  GROUP=   2
 DUMP ORBITAL  6.1 AS ORBITAL    6  occ=    2.0000  eig=   -0.6167  GROUP=   2
 DUMP ORBITAL  7.1 AS ORBITAL    7  occ=    2.0000  eig=   -0.5884  GROUP=   2
 DUMP ORBITAL  8.1 AS ORBITAL    8  occ=    2.0000  eig=   -0.5008  GROUP=   2
 DUMP ORBITAL  9.1 AS ORBITAL    9  occ=    2.0000  eig=   -0.4469  GROUP=   2

 Total charge:      18.000000
 Frequency information read from record  5400.2

 **********************************************************************************************************************************

 MP2/6-311G(D,P) energy=   -115.436402650700

       OPTG(MP2)             MP2          HF-SCF
   -115.43640265   -115.27087299   -114.87974572
 **********************************************************************************************************************************
 Molpro calculation terminated
