[Molden Format]
[Molpro variables]
_NUMVAR=  1049.000000000000    
_AVOGAD= 0.6022140760000000E+24
_BOLTZ= 0.1380649000000000E-22
_CLIGHTSI=  299792458.0000000    
_JOULE= 0.4359744722207100E-17
_JPCAL=  4.184000000000000    
_PLANCK= 0.6626070150000000E-33
_BOHR= 0.5291772109030000E-10
_ECHARG= 0.1602176634000000E-18
_ENULL= 0.8854187812800001E-11
_MU= 0.1660539066600000E-26
_EMASS= 0.9109383701500001E-30
_AMU2AU=  1822.888486217313    
_CLIGHT=  29979245800.00000    
_EV= 0.3674932217565494E-01
_KJOULE= 0.3808798847133432E-03
_KJOULE/MOL= 0.3808798847133432E-03
_CM= 0.4556335252912009E-05
_CM-1= 0.4556335252912009E-05
_DEB2SI= 0.3335640951981520E-29
_KCAL= 0.1593601437640628E-02
_KCAL/MOL= 0.1593601437640628E-02
_KELVIN= 0.3166811563455608E-05
_HERTZ= 0.1519829846057038E-15
_HZ= 0.1519829846057038E-15
_TOA= 0.5291772109030000    
_TOANG= 0.5291772109030000    
_TORAD= 0.1745329251994330E-01
_TOCM=  219474.6313631965    
_TODEBYE=  2.541746473194078    
_TOE= 0.4803204712570263E-09
_TOEV=  27.21138624598803    
_TOHERTZ=  6579683920501656.    
_TOHZ=  6579683920501656.    
_TOK=  315775.0248040668    
_TOKCAL=  627.5094740630558    
_TOKELVIN=  315775.0248040668    
_TOKJ=  2625.499639479825    
_TOKJOULE=  2625.499639479825    
_TOKG= 0.1660539066600000E-26
_ANG=  1.889726124625770    
_ANGSTROM=  1.889726124625770    
_RPAREF=  0.000000000000000    
_RPADISS=  0.000000000000000    
_IGNORE_UNDEF=  2.000000000000000    
_STRICTCHECK=  0.000000000000000    
!SEWARD=  0.000000000000000    
!MULTI=  0.000000000000000    
!DFMULTI=  0.000000000000000    
_SEW_ONEEL=  0.000000000000000    
_CPPDONE=FALSE
_DKROLL_DONE=  0.000000000000000    
_FNUC_DONE=  0.000000000000000    
_FOCKDONE=TRUE
_GRADONE=FALSE
_HESSDONE=TRUE
_INTDONE=TRUE
_SCFDONE=TRUE
_MODUL_BLOCK=FALSE
_MODUL_CUDA=FALSE
_MODUL_SLATER=FALSE
_MODUL_MRCC=FALSE
_MODUL_NBO6=FALSE
_MODUL_NECI=FALSE
_MODUL_AIMS=TRUE
_MODUL_GECCO=FALSE
_ISWINDOWS=FALSE
_MRCC_EXEC=
_FITC_AO_SAVED=  0.000000000000000    
_FITC_MO_SAVED=  0.000000000000000    
_SHARED_FS=TRUE
_LSTYP=SEWARD
_INTYP=INTS
_GEOMTYP=ZMAT
_GRADTYP=ALASKA
_DIRECT=FALSE
_DKHO= -1.000000000000000    
_FNUC=  0.000000000000000    
_SYNCM=  0.000000000000000    
_BASIS=6-311G(D,P)
_ZCENTRE=MASS
_ZORIENT=  1.000000000000000    
_NELEC=  18.00000000000000    
!SPIN=  0.000000000000000    
_OPTCONV= 0.1396793167634007E-02
_QSDSTEP=  0.000000000000000    
_QSDIRC=  0.000000000000000    
_PROGRAM=FREQ
_CPUSTEP= 0.9999999999990905E-02
_SYSSTEP=  0.000000000000000    
_WALLSTEP=  0.000000000000000    
!DFMP2=  0.000000000000000    
!DFSCF=  0.000000000000000    
!SCSGRD=  0.000000000000000    
_CPUTOT=  267.5100000000000    
_CPUCCSD= 0.2999999999997272E-01
_SYSCCSD=  0.000000000000000    
_WALLCCSD= 0.1999999955296516E-01
_CPUF12=  0.000000000000000    
_SYSF12=  0.000000000000000    
_WALLF12=  0.000000000000000    
_CPUF12B=  0.000000000000000    
_SYSF12B=  0.000000000000000    
_WALLF12B=  0.000000000000000    
_CPUTRANS= 0.4300000000000068    
_SYSTRANS=  0.000000000000000    
_WALLTRANS= 0.1799999997019768    
_DFTEXFAC=  1.000000000000000    
_DMX= 0.3377267549364396E-05
_DMY= 0.5853424194548030    
_DMZ= 0.3616188050643281    
_DMX_SCF= 0.4896005612718842E-06
_DMY_SCF= 0.6211459160554947    
_DMZ_SCF= 0.4228382183543411    
_FREQUENCIES= 0.7971529781682147E-04
_HOMO=  9.100000000000000    
_EHOMO=-0.4468638634743392    
_LUMO=  10.10000000000000    
_ELUMO= 0.1536472846781010    
_EMP2= -115.4364026507004    
_EMP2_SING=-0.2337368598326949    
_EMP2_TRIP=-0.1278428769855027    
_EMP2_SCS= -115.4348538246946    
_ECSING=-0.2337368598326950    
_ECTRIP=-0.1278428769855026    
_ENERGC= -115.4364026507004    
_ENERG_CC=  0.000000000000000    
_ENERG_CV=  0.000000000000000    
_ENERG_VV=-0.3615797368181976    
_ENERGR= -115.0748229138822    
_ENERGY= -115.4364026507004    
_ENERGY_METHOD=MP2
_ENERGY_BASIS=6-311G(D,P)
_GEOMETRY_METHOD=
_GEOMETRY_BASIS=
_ENUC=  40.35112160581472    
_FREQSTEP=  37.00000000000000    
_GRADENERG= -115.4363777580702    
_GRADEXFAC=  9999.000000000000    
_GRADMETHOD=  8.000000000000000    
_NMRMETHOD=  0.000000000000000    
_NMRMAGNET=  0.000000000000000    
_GRADRECORD=TRUE
_VIRIAL=-0.8961786094584812E-02
!GRID_FREEZE= -1.000000000000000    
!NEESE_INDEX=  0.000000000000000    
_ITERATIONS=  1.000000000000000    
_LASTNELEC=  18.00000000000000    
_LASTSPIN=  0.000000000000000    
_LASTSYM=  1.000000000000000    
_MPP_PROG=  1.000000000000000    
_MSNSTATES=  0.000000000000000    
_RS2PHASE=  0.000000000000000    
_IPROC_MPP=  0.000000000000000    
_IPROC_MPPX=  0.000000000000000    
_NPROC_MPP=  6.000000000000000    
_NPROC_MPPX=  6.000000000000000    
_NPROC_SMP=  8.000000000000000    
_NUMSTEP=  0.000000000000000    
_OPTCONVMX= 0.1327405335806481E-02
_OPTCONVRMS= 0.5702384228181822E-03
_OPTGRAD= 0.1010497248914862E-03
_OPTGRADMX= 0.8440786737874882E-04
_OPTGRADRMS= 0.8420810407623853E-05
_OPTSTEP=  19.00000000000000    
_ORBITAL=  2100.200000000000    
_PI=  3.141592653589793    
_ECDIAG=-0.7510404780282803E-01
_EPDIAG=-0.7510404780282803E-01
_SEIG_MIN= 0.8937327310655170E-02
_SEWPROP=TRUE
_STATUS=  1.000000000000000    
_SYSTOT=  3.950000000000000    
_T1DIAG=  0.000000000000000    
_VERSION=  2022002.000000000    
_WALLTOT=  115.3200000000000    
_ZPE= 0.5236497141094312E-01
_DATE=25-Aug-25
_LASTORB=0
_METHODC=MP2
_OUTPUT=/home/zwa/Overlap_Integral_Project/overlap_integral_gaussian/molpro_files/methanol/methanolmp2/methanol.out
_PGROUP=C1
_TIME=11:35:43
_ANSATZ=
_LIBMOL=/usr/local/molpro/molpro_2022.2.3_sockets/lib/
_VIGRDC=  0.000000000000000    
!VIBCNT=  0.000000000000000    
!RGHFCNT=  0.000000000000000    
!SURFREC=  0.000000000000000    
!XSURFREC=  0.000000000000000    
!XPOLYREC=  0.000000000000000    
!ROTREC=  0.000000000000000    
!POLYREC=  0.000000000000000    
!DIPREC=  0.000000000000000    
!DIP4DREC=  0.000000000000000    
!DIPROT=  0.000000000000000    
!DIP4DROT=  0.000000000000000    
!PTREC=  0.000000000000000    
!PT4DREC=  0.000000000000000    
!VSCFREC=  0.000000000000000    
!VCIREC=  0.000000000000000    
!PVCIREC=  0.000000000000000    
!VMP2REC=  0.000000000000000    
!VMCSCFREC=  0.000000000000000    
!VMRCIREC=  0.000000000000000    
!VIBSTATEREC=  0.000000000000000    
!VIBSTATECNT=  0.000000000000000    
!VIBINFO=  0.000000000000000    
!GAREC=  0.000000000000000    
!SCFORB=  21002.00000000000    
!CIOCC=  9.000000000000000    
!CICORE=  2.000000000000000    
!DEFCORE=  2.000000000000000    
!SCORE=  0.000000000000000    
!CICLOS=  9.000000000000000    
!CIISTSYM=  1.000000000000000    
!CIISTMS2=  0.000000000000000    
!CIISTNEL=  14.00000000000000    
!NEWMOL= -1.000000000000000    
!NEWSYM= -1.000000000000000    
_SLFILES=slscratch
_NGSSTO=  9.000000000000000    
_SIN=SIN
_COS=COS
_TAN=TAN
_ACOS=ACOS
_ASIN=ASIN
_ATAN=ATAN
_COSH=COSH
_SINH=SINH
_TANH=TANH
_ABS=ABS
_MOD=MOD
_ERF=ERF
_REFC=REFC
_ERFC=ERFC
_HYPOT=HYPOT
_J0=J0
_J1=J1
_JN=JN
_GAMMA=GAMMA
_LGAMMA=LGAMMA
_Y0=Y0
_Y1=Y1
_YN=YN
_EXP=EXP
_LOG=LOG
_LOG10=LOG10
_SQRT=SQRT
_INT=INT
_NINT=NINT
_MAX=MAX
_MIN=MIN
_COSMO=  0.000000000000000    
_COSMOIT=  0.000000000000000    
_COSMOES=  0.000000000000000    
_COSMOEDS=  0.000000000000000    
_COSMOEC=  0.000000000000000    
_COSMOEDCORR=  0.000000000000000    
_FEPSI=  1.000000000000000    
_SL_IsMM=  0.000000000000000    
_SL_NSYM=  1.000000000000000    
_SL_System_BitSw=  0.000000000000000    
_SL_Unique_atoms=  0.000000000000000    
_SL_GRAD=  0.000000000000000    
_SL_MAXUPD_Hess=  5.000000000000000    
_SL_N_PRINT_COD=  5.000000000000000    
_SL_PRINT_CODES=  0.000000000000000    
_SL_BasType=  0.000000000000000    
_SL_Energy_Pred=  0.000000000000000    
_SL_New_Coords=  0.000000000000000    
_SL_Total_Nuclea=  0.000000000000000    
_SL_Highest_Mltp=  0.000000000000000    
_SL_Ref_Geom=  0.000000000000000    
_SL_Symmetry_ope=  1.000000000000000    
_SL_agrad=  0.000000000000000    
_SL_GrdMax=  0.000000000000000    
_SL_GrdNorm=  0.000000000000000    
_SL_GrdRMS=  0.000000000000000    
_SL_Hss_Q=  0.000000000000000    
_SL_Hss_X=  0.000000000000000    
_SL_BMxOld=  0.000000000000000    
_SL_KtB=  0.000000000000000    
_SL_TROld=  0.000000000000000    
_SL_No_of_Intern=  0.000000000000000    
_SL_Hess=  0.000000000000000    
_SL_K=  0.000000000000000    
!LATTICE= -1.000000000000000    
!NEWLATTICE=  0.000000000000000    
!LATGRAD_VAR=FALSE
!SEW_LATTICE=  1.000000000000000    
!AIC_ONEEL=  0.000000000000000    
!LOCAL=  0.000000000000000    
!SAVEDOM= -1.000000000000000    
!RESTDOM= -1.000000000000000    
!SAVEDOM_HF= -1.000000000000000    
!RESTDOM_HF= -1.000000000000000    
!HESSREC=  5300.200000000000    
!FREQREC=  5400.200000000000    
!NMODREC=  5450.200000000000    
!GTASKS=  0.000000000000000    
!HTASKS=  0.000000000000000    
!SAVEDOM_EOM= -1.000000000000000    
!RESTDOM_EOM= -1.000000000000000    
!GRADSTATE= -1.000000000000000    
!DEBUG=  0.000000000000000    
!CFIT_CPHF=  0.000000000000000    
!RDOMAUX_CPHF=  0.000000000000000    
!THRAO_CPHF= 0.1000000000000000E-11
!THRMO_CPHF= 0.1000000000000000E-11
!THROV_CPHF= 0.1000000000000000E-11
!THRSW_CPHF= 0.1000000000000000E-11
!THRPROD_CPHF= 0.1000000000000000E-11
!THRAOPR_CPHF= 0.1000000000000000E-11
!CFIT_SCFGRD=  0.000000000000000    
!RDOMAUX_SCFGRD=  0.000000000000000    
!THRAO_SCFGRD= 0.1000000000000000E-11
!THRMO_SCFGRD= 0.1000000000000000E-11
!THROV_SCFGRD= 0.1000000000000000E-11
!THRSW_SCFGRD= 0.1000000000000000E-11
!THRPROD_SCFGRD= 0.1000000000000000E-11
!THRAOPR_SCFGRD= 0.1000000000000000E-11
!LOCFIT_SCF=  0.000000000000000    
!LOCFIT_MP2=  0.000000000000000    
_RIDOM=  0.000000000000000    
!CC2_METHOD=  0.000000000000000    
_BASIS2006=FALSE
_SVDDEL= -1.000000000000000    
_SVDDELA= -1.000000000000000    
_SVDDELP= -1.000000000000000    
_SVDDELF= -1.000000000000000    
_SVDDELS= -1.000000000000000    
_SVDDEL_ABS= -1.000000000000000    
_SVDDELA_ABS= -1.000000000000000    
_SVDDELP_ABS= -1.000000000000000    
_SVDDELF_ABS= -1.000000000000000    
_SVDDELS_ABS= -1.000000000000000    
_MAXBASIS=  0.000000000000000    
!OPT_CONICAL=  0.000000000000000    
!CLEARSP_JGRID=  0.000000000000000    
_GRDHYBR=  0.000000000000000    
_STATEGRAD=  1.000000000000000    
_4EXT_NDISKS=  1.000000000000000    
!EMBEDFLAG=  1.000000000000000    
!EMBED=FALSE
!EMBED_F12=FALSE
!EMBEDNUC=  0.000000000000000    
_EMBEDENERGY=  0.000000000000000    
!EMBED_DFC=FALSE
!NUM_VOIDS=  0.000000000000000    
_IBODY=  0.000000000000000    
_EMBE_CORR=  0.000000000000000    
!EMBED_PROJ=FALSE
!EMB_PROJ_ZMU=  1000000.000000000    
!CORRECTION_HF=  0.000000000000000    
!EMBED_AORB=  0.000000000000000    
!EMBED_NACORR=  0.000000000000000    
!EMBED_MP2=FALSE
!EMBED_TRUNC_PERTURBATION=FALSE
!EMBED_FROZEN=  0.000000000000000    
!EMBED_ACTIVE=  0.000000000000000    
_CHANGE_BASIS=FALSE
_RESTORE_BASIS=FALSE
_FIX_EMBED_GUESS=FALSE
_EMBED_SCF=FALSE
_HUZINAGA_T=FALSE
_HUZINAGA_F=FALSE
_HUZINAGA=FALSE
_HUZINAGA_CORRECT=FALSE
!FASTLATGRAD=  1.000000000000000    
!FASTVLAMBDA= -1.000000000000000    
!IFORCE= -1.000000000000000    
!USESYM= -1.000000000000000    
_SINDEX=  0.000000000000000    
_AVDOM_OSV=  0.000000000000000    
_AVDOM_PNO=  0.000000000000000    
_AVDOM_PAO=  0.000000000000000    
_AVDOM_LMO=  0.000000000000000    
_CC2OSV_FLAG=  0.000000000000000    
_EOMCCSD_CONV=FALSE
_TMADC2_FLAG=FALSE
_PROPADC2_FLAG=FALSE
_LEN_VirQ=  0.000000000000000    
_GRDCC2LR_FLAG=FALSE
_GRDADC2_FLAG=FALSE
_RO_VGLOBAL=  0.000000000000000    
_OPT=FALSE
_FREQ=FALSE
_HESS=FALSE
_CMRCC_callName=EMPTY
_CMRCC_callCount=  0.000000000000000    
_GECCO_CIROOT=  1.000000000000000    
_SYM_CATION=  1.000000000000000    
_MON_A=FALSE
_MON_B=FALSE
GX1=-0.2324617048840471E-05
GY1= 0.1223304346199501E-01
GZ1= 0.7253102441445820    
GX2= 0.1900603630835203E-03
GY2= -1.012822626172532    
GZ2=  1.096713592322862    
GX3= 0.8913201287593528    
GY3= 0.5178472706103884    
GZ3=  1.117478814186898    
GX4=-0.8914845486839489    
GY4= 0.5175315330873564    
GZ4=  1.117483763118705    
GX5= 0.3631761712459883E-06
GY5=-0.6351291976353177E-01
GZ5=-0.6904656314671910    
GX6=-0.3725488557723631E-05
GY6= 0.8397829328470958    
GZ6= -1.009633450231839    
CX1=-0.4392889566945044E-05
CY1= 0.2311710181381445E-01
CZ1=  1.370637716818712    
HX2= 0.3591620333747870E-03
HY2= -1.913957376290314    
HZ2=  2.072488326644689    
HX3=  1.684350932721354    
HY3= 0.9785895158386018    
HZ3=  2.111728908884807    
HX4= -1.684661641348272    
HY4= 0.9779928583928036    
HZ4=  2.111738261010533    
OX5= 0.6863034986443611E-06
OY5=-0.1200220237284064    
OZ5= -1.304790941939780    
HX6=-0.7040153054525475E-05
HY6=  1.586959747216006    
HZ6= -1.907930707199159    
[Atoms] Angs
C     1    6        -0.0000023246        0.0122330435        0.7253102441
H     2    1         0.0001900604       -1.0128226262        1.0967135923
H     3    1         0.8913201288        0.5178472706        1.1174788142
H     4    1        -0.8914845487        0.5175315331        1.1174837631
O     5    8         0.0000003632       -0.0635129198       -0.6904656315
H     6    1        -0.0000037255        0.8397829328       -1.0096334502
[GTO]
   1 0
 s    6  1.00
  0.4563240000D+04  0.1966650249D-02
  0.6820240000D+03  0.1523060193D-01
  0.1549730000D+03  0.7612690966D-01
  0.4445530000D+02  0.2608010331D+00
  0.1302900000D+02  0.6164620782D+00
  0.1827730000D+01  0.2210060280D+00
 s    3  1.00
  0.2096420000D+02  0.1146600807D+00
  0.4803310000D+01  0.9199996477D+00
  0.1459330000D+01 -0.3030682134D-02
 s    1  1.00
  0.4834560000D+00  0.1000000000D+01
 s    1  1.00
  0.1455850000D+00  0.1000000000D+01
 p    3  1.00
  0.2096420000D+02  0.4024869267D-01
  0.4803310000D+01  0.2375939567D+00
  0.1459330000D+01  0.8158538515D+00
 p    1  1.00
  0.4834560000D+00  0.1000000000D+01
 p    1  1.00
  0.1455850000D+00  0.1000000000D+01
 d    1  1.00
  0.6260000000D+00  0.1000000000D+01
  
   2 0
 s    3  1.00
  0.3386500000D+02  0.2549381454D-01
  0.5094790000D+01  0.1903731086D+00
  0.1158790000D+01  0.8521614860D+00
 s    1  1.00
  0.3258400000D+00  0.1000000000D+01
 s    1  1.00
  0.1027410000D+00  0.1000000000D+01
 p    1  1.00
  0.7500000000D+00  0.1000000000D+01
  
   3 0
 s    3  1.00
  0.3386500000D+02  0.2549381454D-01
  0.5094790000D+01  0.1903731086D+00
  0.1158790000D+01  0.8521614860D+00
 s    1  1.00
  0.3258400000D+00  0.1000000000D+01
 s    1  1.00
  0.1027410000D+00  0.1000000000D+01
 p    1  1.00
  0.7500000000D+00  0.1000000000D+01
  
   4 0
 s    3  1.00
  0.3386500000D+02  0.2549381454D-01
  0.5094790000D+01  0.1903731086D+00
  0.1158790000D+01  0.8521614860D+00
 s    1  1.00
  0.3258400000D+00  0.1000000000D+01
 s    1  1.00
  0.1027410000D+00  0.1000000000D+01
 p    1  1.00
  0.7500000000D+00  0.1000000000D+01
  
   5 0
 s    6  1.00
  0.8588500000D+04  0.1895150083D-02
  0.1297230000D+04  0.1438590063D-01
  0.2992960000D+03  0.7073200310D-01
  0.8737710000D+02  0.2400010105D+00
  0.2567890000D+02  0.5947970261D+00
  0.3740040000D+01  0.2808020123D+00
 s    3  1.00
  0.4211750000D+02  0.1138890124D+00
  0.9628370000D+01  0.9208111006D+00
  0.2853320000D+01 -0.3274470358D-02
 s    1  1.00
  0.9056610000D+00  0.1000000000D+01
 s    1  1.00
  0.2556110000D+00  0.1000000000D+01
 p    3  1.00
  0.4211750000D+02  0.3651139738D-01
  0.9628370000D+01  0.2371529830D+00
  0.2853320000D+01  0.8197019412D+00
 p    1  1.00
  0.9056610000D+00  0.1000000000D+01
 p    1  1.00
  0.2556110000D+00  0.1000000000D+01
 d    1  1.00
  0.1292000000D+01  0.1000000000D+01
  
   6 0
 s    3  1.00
  0.3386500000D+02  0.2549381454D-01
  0.5094790000D+01  0.1903731086D+00
  0.1158790000D+01  0.8521614860D+00
 s    1  1.00
  0.3258400000D+00  0.1000000000D+01
 s    1  1.00
  0.1027410000D+00  0.1000000000D+01
 p    1  1.00
  0.7500000000D+00  0.1000000000D+01


[MO]
 Sym=      1.1
 Ene=     -20.5457
 Spin= Alpha
 Occup=    2.000000
1 -0.000002714394655
2 -0.000031731270585
3 0.000085668462165
4 0.000509837830414
5 0.000000001551705
6 -0.000014667822654
7 -0.000023193424455
8 -0.000000006574029
9 0.000033169478089
10 -0.000266217427753
11 0.000000016350723
12 -0.000147709580043
13 -0.000196217408569
14 -0.000057757049468
15 -0.000081164795621
16 0.000138921845089
17 -0.000000000531492
18 -0.000000000949655
19 -0.000017536352494
20 0.000029663686641
21 -0.000123449352102
22 -0.000047612833931
23 -0.000000002706454
24 0.000015803975240
25 0.000000195874921
26 0.000009707717980
27 -0.000048661760755
28 -0.000000936063832
29 -0.000018832904721
30 0.000010383997522
31 0.000023786875804
32 0.000009705688416
33 -0.000048673126170
34 -0.000000927662004
35 0.000018826907711
36 0.000010392582496
37 0.000023783599799
38 0.55146124092565
39 0.47167567494807
40 0.005560543434692
41 -0.000801612975192
42 -0.000000019549260
43 0.001495127466291
44 0.000970733225452
45 0.000000008896933
46 -0.000570373538438
47 -0.000347437931240
48 -0.000000004667832
49 0.000125369561555
50 -0.000155923757716
51 0.000165615044881
52 -0.000024037024604
53 -0.000141578020278
54 0.000000002004669
55 0.000000000589018
56 0.000045977568763
57 0.000209008658590
58 0.000111732330114
59 0.000064614279294
60 -0.000000000325913
61 -0.000073290169502
62 0.000081048764796
 Sym=      2.1
 Ene=     -11.2704
 Spin= Alpha
 Occup=    2.000000
1 0.56347053356212
2 0.46656776060712
3 0.004003897993199
4 -0.001208817216634
5 0.000000019561600
6 0.000055547466682
7 -0.000927336076709
8 -0.000000029205949
9 -0.000049086121648
10 0.000726922067441
11 -0.000000002898929
12 0.000037378166704
13 -0.000130486540020
14 0.000107701462028
15 0.000163087073908
16 -0.000270788535937
17 -0.000000029358076
18 -0.000000012158904
19 -0.000032770492474
20 0.000337299992498
21 0.000072953732588
22 0.000275028388185
23 0.000000005102497
24 -0.000027926899193
25 -0.000028774150584
26 0.000340746921860
27 0.000104865677079
28 0.000242423114882
29 0.000005940913888
30 0.000004163519198
31 -0.000039127135160
32 0.000340753380629
33 0.000104815310034
34 0.000242450048313
35 -0.000005960345698
36 0.000004171948367
37 -0.000039117391598
38 -0.000068071830815
39 -0.000122200160655
40 0.000277445684913
41 0.000354752464731
42 -0.000000000138801
43 0.000012641183601
44 0.000099803476295
45 -0.000000002338414
46 0.000011089963645
47 0.000537283974964
48 0.000000000694867
49 0.000019801016864
50 0.000155418446608
51 -0.000102903775462
52 -0.000119959339955
53 0.000222863115417
54 0.000000000570321
55 -0.000000001579201
56 0.000045306097503
57 -0.000014311564601
58 0.000023364726765
59 -0.000026822895968
60 0.000000000652555
61 -0.000041728522526
62 0.000018222224420
 Sym=      3.1
 Ene=      -1.3539
 Spin= Alpha
 Occup=    2.000000
1 -0.036981160310843
2 -0.060477786881024
3 0.15130530618198
4 0.003937534003302
5 0.000000040667783
6 -0.000293719427306
7 -0.039772946657934
8 0.000000375328947
9 0.000410454975512
10 -0.079595398813227
11 -0.000000654339002
12 0.004852590864974
13 0.004107813273967
14 -0.014288031746490
15 -0.013411592145925
16 0.027699623892415
17 0.000000104334405
18 0.000000004680018
19 -0.000228054091761
20 0.014712672292510
21 0.031243975041882
22 0.001141256621048
23 -0.000001432021059
24 0.007660513414824
25 -0.003491767839380
26 0.014482541811227
27 0.029449351579667
28 -0.001021018886819
29 -0.006518175707555
30 -0.003902635517201
31 -0.004162743206145
32 0.014482750613251
33 0.029449671850257
34 -0.001021306100954
35 0.006519631516058
36 -0.003900458150386
37 -0.004162842555526
38 -0.10966443103468
39 -0.18321334879850
40 0.52029896589489
41 0.39342967704307
42 -0.000000142754158
43 0.028031370476425
44 0.020262560393059
45 -0.000000329768552
46 0.048120438910629
47 0.037478583377411
48 -0.000000014179182
49 0.017153176858199
50 0.029332119415110
51 -0.007814926525070
52 0.003177095221632
53 0.004637831303438
54 -0.000000060902899
55 -0.000000031513850
56 -0.001257398179046
57 0.088864406590139
58 0.074332388980883
59 -0.000764655305627
60 0.000000054159312
61 -0.023768677687094
62 0.011549585596389
 Sym=      4.1
 Ene=      -0.9220
 Spin= Alpha
 Occup=    2.000000
1 -0.094754718371266
2 -0.15752959041747
3 0.41067673449266
4 0.24835612570608
5 -0.000000505592310
6 -0.005450327351878
7 0.031340633956194
8 -0.000000129521146
9 -0.008636160381015
10 0.028500473236509
11 -0.000001422486401
12 0.007337159875176
13 0.024916705336051
14 -0.000207343378432
15 0.002063664803308
16 -0.001856321424876
17 -0.000000520258381
18 -0.000000126116131
19 0.001807795676145
20 0.087006727229643
21 0.12551950079464
22 0.007696075422488
23 -0.000003872242114
24 0.020145744909444
25 -0.004887637815435
26 0.083290650722721
27 0.11623116549293
28 0.003936939789602
29 -0.016457938010461
30 -0.009839935286546
31 -0.005581319026609
32 0.083293578434609
33 0.11623381928456
34 0.003935894364682
35 0.016461668027244
36 -0.009834549633386
37 -0.005581364057348
38 0.031572412972560
39 0.053077992313543
40 -0.15386270430915
41 -0.14803432890210
42 0.000000093604643
43 -0.031916293982244
44 0.079169082462210
45 0.000000088927629
46 -0.051814004708164
47 0.12644247971582
48 0.000000297244151
49 -0.019761030971227
50 0.070503218554894
51 -0.001282180100443
52 -0.010344998453523
53 0.011627178553966
54 0.000000047322626
55 -0.000000065280627
56 0.005874315459948
57 -0.069186789314313
58 -0.082580505712051
59 -0.013335017671115
60 -0.000000025010277
61 0.016324642529294
62 -0.001026096630203
 Sym=      5.1
 Ene=      -0.6872
 Spin= Alpha
 Occup=    2.000000
1 -0.010839111360837
2 -0.017494628839923
3 0.041288717385254
4 0.057513005830167
5 -0.000003970576613
6 0.090478147518381
7 0.077416502652795
8 -0.000006302319348
9 0.15146113985166
10 0.13315591203997
11 -0.000005431689774
12 0.091375109138388
13 0.051798621867519
14 0.023242140469135
15 0.002269509867049
16 -0.025511650336185
17 0.000006151698682
18 -0.000000295026451
19 -0.010447171195410
20 -0.031836377971661
21 -0.037568873228318
22 -0.012346913067895
23 0.000000942140740
24 -0.001457516809429
25 0.002793146495080
26 0.065427682967790
27 0.088471465481858
28 0.023726302474317
29 -0.008105244431852
30 -0.000173108934675
31 0.000477543703923
32 0.065413802507103
33 0.088449888108482
34 0.023717681630947
35 0.008104372443487
36 -0.000169281229388
37 0.000478505582646
38 0.021939835599849
39 0.037359187281860
40 -0.11461061085711
41 -0.16827325173490
42 -0.000002262265902
43 0.17213520706716
44 -0.086673639701037
45 -0.000003611656837
46 0.26425434781698
47 -0.13760797292447
48 -0.000002153891777
49 0.17887112731754
50 -0.080702808040589
51 -0.005082044370424
52 0.019685311157272
53 -0.014603266786848
54 -0.000000246257215
55 -0.000000106974670
56 0.000302081585642
57 0.13491872825149
58 0.20688678620838
59 0.039086167296164
60 -0.000000058635170
61 -0.025501305985770
62 0.012642100465591
 Sym=      6.1
 Ene=      -0.6167
 Spin= Alpha
 Occup=    2.000000
1 0.000000037295314
2 0.000000078361644
3 -0.000000474461144
4 0.000000731792509
5 0.16207938514164
6 -0.000001479507164
7 0.000001661825183
8 0.26290972220566
9 -0.000001919402404
10 0.000002869457036
11 0.15120374707866
12 -0.000004363864131
13 0.000001418676289
14 -0.000009961614633
15 0.000010890904556
16 -0.000000929289923
17 0.022909998246663
18 -0.000590240710828
19 -0.000000989498084
20 0.000024961937162
21 0.000035480320120
22 0.000010503991015
23 0.008845282384763
24 0.000004025360949
25 -0.000000742989859
26 0.10872000038748
27 0.16298183627300
28 0.065019260573754
29 -0.007323615984160
30 -0.008282618102991
31 -0.004994410503323
32 -0.10874119638639
33 -0.16300869298270
34 -0.065027339861511
35 -0.007329022393651
36 0.008278650646948
37 0.004994843919507
38 0.000000660009705
39 0.000001123034433
40 -0.000003301865748
41 -0.000006342419555
42 0.15507891796370
43 0.000004843418136
44 -0.000002255634033
45 0.24146792295439
46 0.000007132652155
47 -0.000003695129409
48 0.21011842465918
49 0.000005775360081
50 -0.000002197477692
51 -0.000000313147675
52 0.000000616959734
53 -0.000000303812059
54 0.007913434151575
55 0.011952131537658
56 -0.000000106852083
57 0.000003451854442
58 0.000006629917871
59 0.000001680859626
60 0.016490827023377
61 -0.000000639417828
62 0.000000667788669
 Sym=      7.1
 Ene=      -0.5884
 Spin= Alpha
 Occup=    2.000000
1 -0.000681754516292
2 -0.002016266560480
3 0.008439527466756
4 -0.017484796798776
5 0.000001069794399
6 0.10283101194605
7 -0.12560395772713
8 0.000001961789877
9 0.16777095038764
10 -0.22301047733060
11 -0.000002322686800
12 0.12767916117254
13 -0.10452880638772
14 -0.007410091727293
15 -0.033342502801441
16 0.040752594528735
17 0.000009003602051
18 -0.000000150618585
19 0.004516305903321
20 -0.12227164857583
21 -0.16818911923021
22 -0.061883034369536
23 0.000003033074472
24 -0.010257037660298
25 -0.001298123179788
26 0.002066297693415
27 0.002616585794574
28 0.000120270174853
29 -0.001885946337651
30 0.003330643192111
31 -0.005429028744448
32 0.002038561636832
33 0.002574718496471
34 0.000100189143215
35 0.001883050775128
36 0.003333131446982
37 -0.005427686521236
38 0.014889097507966
39 0.025211056218568
40 -0.075916682970867
41 -0.11260901100258
42 0.000001178362833
43 0.057434109018317
44 0.18116620976692
45 0.000001699979450
46 0.087723999838264
47 0.28074488971689
48 0.000002297202832
49 0.081462773006092
50 0.22872821148527
51 -0.006673791530424
52 -0.005491670885603
53 0.012165462416027
54 0.000000151053685
55 -0.000000041956427
56 0.017120528602646
57 -0.029210870885506
58 -0.034224777102300
59 -0.042877337766454
60 0.000000232301898
61 0.010112609839993
62 0.018283172379597
 Sym=      8.1
 Ene=      -0.5008
 Spin= Alpha
 Occup=    2.000000
1 -0.004443451563224
2 -0.007727410598198
3 0.024378800781975
4 -0.017405302048879
5 0.000000873108710
6 -0.14000857071015
7 -0.040295615170575
8 0.000000768814067
9 -0.21688853064784
10 -0.075801042950598
11 -0.000001315024151
12 -0.11851394636708
13 -0.012276803056910
14 -0.023608640046128
15 0.010526511071352
16 0.013082128974776
17 -0.000010431703395
18 0.000000895362782
19 -0.030715547911512
20 0.11680420778795
21 0.22211447577739
22 0.081444151410908
23 -0.000004423969412
24 0.014167786292811
25 -0.009169058920877
26 -0.072854043830613
27 -0.12265849966512
28 -0.064097821782741
29 0.009963057287728
30 -0.004913473134365
31 0.001141909748102
32 -0.072816471324902
33 -0.12258982201891
34 -0.064066528516029
35 -0.009958597420684
36 -0.004920027838506
37 0.001139781978539
38 0.024963390239616
39 0.042435640989992
40 -0.12831759440565
41 -0.21824499447347
42 -0.000006207243147
43 0.16481227634595
44 0.080487241569315
45 -0.000009349722078
46 0.24462303566354
47 0.11973999703202
48 -0.000009536328655
49 0.22716534901922
50 0.13930377806052
51 -0.010053855335426
52 0.009769391525696
53 0.000284463809730
54 -0.000000719959609
55 -0.000000206589190
56 0.000908738780219
57 0.084464718872392
58 0.15908667103475
59 0.033832896697248
60 -0.000000989582399
61 -0.012281791021205
62 0.018864364932602
 Sym=      9.1
 Ene=      -0.4469
 Spin= Alpha
 Occup=    2.000000
1 -0.000000205243517
2 -0.000000332162791
3 0.000001073943377
4 -0.000002176976974
5 -0.10472391001232
6 -0.000001615475277
7 -0.000000346712042
8 -0.16107908544047
9 -0.000003243301319
10 -0.000000591503125
11 -0.081040540620830
12 -0.000003517471249
13 -0.000000089489651
14 0.000006343792117
15 -0.000006782166679
16 0.000000438374562
17 -0.016254836280747
18 -0.037528996766075
19 -0.000000442820571
20 -0.000017488238574
21 -0.000035429123141
22 -0.000016002291335
23 -0.008270799365435
24 -0.000003820149358
25 0.000000972181670
26 -0.093441631943019
27 -0.18995322291287
28 -0.083366241839668
29 0.006919191802533
30 0.007933765349469
31 0.005638168272976
32 0.093457053899506
33 0.18998476540011
34 0.083379406160523
35 0.006924797185144
36 -0.007930000448402
37 -0.005639399825768
38 0.000000023956622
39 0.000000045306070
40 -0.000000381714555
41 0.000002260849443
42 0.24837689618794
43 0.000003220153791
44 0.000002009692918
45 0.37292655243480
46 0.000005012973923
47 0.000003011074987
48 0.41393700290055
49 0.000007027889077
50 0.000003158459725
51 -0.000000068492333
52 0.000000035738213
53 0.000000032754120
54 0.010795124097775
55 0.003898250353186
56 0.000000111077455
57 0.000000442423506
58 -0.000002517472992
59 -0.000000001121945
60 0.026003104715894
61 0.000000343472830
62 -0.000000375973369
 Sym=     10.1
 Ene=       0.1536
 Spin= Alpha
 Occup=    0.000000
1 0.030490056144240
2 0.048528026657648
3 -0.018881877695009
4 -1.70376328260634
5 -0.000005602479537
6 -0.020531624086004
7 -0.059861079964257
8 -0.000004447756846
9 -0.015080026758906
10 -0.063322422493461
11 -0.000041579881974
12 -0.15231742240030
13 -0.24192597683799
14 0.005057692465580
15 0.003061402765073
16 -0.008119095230654
17 0.000002036294387
18 0.000000221888082
19 0.006474148466395
20 0.002494688721005
21 0.047470911616527
22 0.44782690193888
23 -0.000001082128619
24 0.005316314314663
25 -0.008777432831009
26 0.003491444945878
27 0.010678954895708
28 0.79523313132276
29 0.000552480917559
30 0.001917695933889
31 -0.006466701379971
32 0.003489641536168
33 0.010689658142803
34 0.79508124455458
35 -0.000550743084867
36 0.001916093469052
37 -0.006467581206967
38 0.019239701303230
39 0.032065481386744
40 -0.080929135450147
41 -0.34637093121341
42 0.000001614986991
43 -0.049668602095405
44 0.031430604066604
45 0.000001624349079
46 -0.068698284554310
47 0.024047596749405
48 0.000007592038318
49 -0.13084634732105
50 0.20804856474980
51 0.000504723976867
52 -0.002019748148065
53 0.001515024171198
54 0.000000233368552
55 -0.000000259812723
56 -0.001615138617639
57 0.030338241067043
58 -0.10074051151712
59 0.91599789714625
60 0.000000166842616
61 0.010848395595778
62 -0.008082602041693
 Sym=     11.1
 Ene=       0.1884
 Spin= Alpha
 Occup=    0.000000
1 -0.035731828612109
2 -0.058038506223329
3 0.087244786089137
4 1.23896860428373
5 -0.000004946124316
6 -0.024980628899525
7 0.006758046157280
8 -0.000001925235344
9 -0.012715420141072
10 -0.019109298104767
11 -0.000036456583734
12 -0.26534199365610
13 0.16436039367615
14 0.000876366378301
15 0.004407003600609
16 -0.005283369978910