
 Working directory              : /tmp/zwa/molpro.MTixDENrME/
 Global scratch directory       : /tmp/zwa/molpro.MTixDENrME/
 Wavefunction directory         : /home/zwa/wfu/
 Main file repository           : /tmp/zwa/molpro.MTixDENrME/

 id        : liedlgroup

 Nodes     nprocs
 rh2-c724     6
 GA implementation: MPI file
 GA implementation (serial work in mppx): MPI file

 Using customized tuning parameters: mindgm=1; mindgv=20; mindgc=4; mindgr=1; noblas=0; minvec=7
 default implementation of scratch files=sf  


 Variables initialized (1015), CPU time= 0.01 sec
 memory,1000,m
 orient,mass
 geometry = {
  C,                 -5.13924038 ,   0.99999999  ,  0.00000000
  H,                 -4.78258595 ,  -0.00881002  ,  0.00000000
  H,                 -4.78256754 ,   1.50439818  ,  0.87365150
  H,                 -6.20924038 ,   1.00001317  ,  0.00000000
  O,                 -4.66256546 ,   1.67410224  , -1.16759033
  H,                 -4.03197131 ,   3.20418707  , -1.55668147
 }
 
 mass,iso
 basis=6-311g(d,p)
 {hf
 start,atden}
 
 {mp2}
 
 optg
 {frequencies, symm=auto,print=0,analytical}
 put,molden,methanolmp2.molden
 Commands initialized (834), CPU time= 0.01 sec, 672 directives.
 Default parameters read. Elapsed time= 0.09 sec

 Checking input...
 Passed
1


                                         ***  PROGRAM SYSTEM MOLPRO  ***
                                       Copyright, TTI GmbH Stuttgart, 2015
                                    Version 2022.2 linked Thu Sep 29 12:37:28 2022


 **********************************************************************************************************************************
 LABEL *                                                                                 
  (8 PROC) 64 bit mpp version                                                            DATE: 25-Aug-25          TIME: 11:35:37  
 **********************************************************************************************************************************

 SHA1:             51306cdc306ce2a111a2867affebcb289530e0a7
 **********************************************************************************************************************************

 Memory per process:      1000 MW
 Total memory per node:   6000 MW

 GA preallocation disabled
 GA check disabled

 Variable memory set to 1000.0 MW

 ZCENTRE=MASS


 Geometry recognized as XYZ



 Using masses of most abundant isotopes

 **********************************************************************************************************************************
 SETTING BASIS          =    6-311G(D,P)


 Recomputing integrals since basis changed


 Using spherical harmonics

 Library entry C      S 6-311G               selected for orbital group  1
 Library entry C      P 6-311G               selected for orbital group  1
 Library entry C      D 6-311G*              selected for orbital group  1
 Library entry H      S 6-311G               selected for orbital group  2
 Library entry H      P 6-311G**             selected for orbital group  2
 Library entry O      S 6-311G               selected for orbital group  3
 Library entry O      P 6-311G               selected for orbital group  3
 Library entry O      D 6-311G*              selected for orbital group  3


 PROGRAM * SEWARD (Integral evaluation for generally contracted gaussian basis sets)     Author: Roland Lindh, 1990

 Geometry written to block  1 of record 700

 Orientation using atomic masses  
 Molecule type: Asymmetric top
 Rotational constants:      20.6874951     21.6052430    122.8239524 GHz

 Point group  C1  



 ATOMIC COORDINATES

 NR  ATOM    CHARGE       X              Y              Z

   1  C       6.00   -0.000000035    0.099836165    1.443489822
   2  H       1.00    1.259749845   -1.242977841    2.279188915
   3  H       1.00    0.609257276    1.972306842    1.903023482
   4  H       1.00   -1.869006772   -0.194862219    2.156566816
   5  O       8.00    0.000000001   -0.214174341   -1.240512389
   6  H       1.00    0.000000050    1.675902415   -3.838339008

 Bond lengths in Bohr (Angstrom)

 1-2  2.022006970  1-3  2.022006947  1-4  2.022006954  1-5  2.702308359
     ( 1.070000009)     ( 1.069999996)     ( 1.070000000)     ( 1.430000001)

 Bond angles

  2-1-3  109.47120256   2-1-4  109.47123124   2-1-5  109.47120228   3-1-4  109.47121844

  3-1-5  109.47125079   4-1-5  109.47121850

 NUCLEAR CHARGE:                   18
 NUMBER OF PRIMITIVE AOS:          96
 NUMBER OF SYMMETRY AOS:           94
 NUMBER OF CONTRACTIONS:           60   (   60A   )
 NUMBER OF INNER CORE ORBITALS:     0   (    0A   )
 NUMBER OF OUTER CORE ORBITALS:     2   (    2A   )
 NUMBER OF VALENCE ORBITALS:       12   (   12A   )


 NUCLEAR REPULSION ENERGY   37.81236537


 Eigenvalues of metric

         1 0.926E-02 0.207E-01 0.209E-01 0.320E-01 0.413E-01 0.439E-01 0.528E-01 0.890E-01


 Contracted 2-electron integrals neglected if value below      1.0D-11
 AO integral compression algorithm  1   Integral accuracy      1.0D-11

     8.913 MB (compressed) written to integral file ( 50.7%)

     Node minimum: 1.049 MB, node maximum: 1.835 MB


 NUMBER OF SORTED TWO-ELECTRON INTEGRALS:     279990.     BUFFER LENGTH:  32768
 NUMBER OF SEGMENTS:   1  SEGMENT LENGTH:     279990      RECORD LENGTH: 524288

 Memory used in sort:       0.84 MW

 SORT1 READ     2093033. AND WROTE      258990. INTEGRALS IN      1 RECORDS. CPU TIME:     0.03 SEC, REAL TIME:     0.04 SEC
 SORT2 READ     1530587. AND WROTE     1675365. INTEGRALS IN     30 RECORDS. CPU TIME:     0.00 SEC, REAL TIME:     0.01 SEC

 Node minimum:      278465.  Node maximum:      279990. integrals

 OPERATOR DM      FOR CENTER  0  COORDINATES:    0.000000    0.000000    0.000000


 **********************************************************************************************************************************
 DATASETS  * FILE   NREC   LENGTH (MB)   RECORD NAMES
              1      18       28.78       500      610      700      900      950      970     1000      129      960     1100   
                                          VAR    BASINP    GEOM    SYMINP    ZMAT    AOBASIS   BASIS     P2S    ABASIS      S 
                                         1400     1410     1200     1210     1080     1600     1650     1700   
                                           T        V       H0       H01     AOSYM     SMH    MOLCAS    OPER   

 PROGRAMS   *        TOTAL       INT
 CPU TIMES  *         0.60      0.45
 REAL TIME  *         0.95 SEC
 DISK USED  *        29.12 MB (local),      204.96 MB (total)
 GA USED    *         0.00 MB       (max)       0.00 MB       (current)
 **********************************************************************************************************************************


 Program * Restricted Hartree-Fock

 Orbital guess generated from atomic densities.

 Initial occupancy:   9

 NELEC=   18   SYM=1   MS2= 0   THRE=1.0D-08   THRD=1.0D-06   THRG=1.0D-06  HFMA2=F  DIIS_START=2   DIIS_MAX=10   DIIS_INCORE=F

 Level shifts:    0.00 (CLOSED)    0.00 (OPEN)    0.30 (GAP_MIN)

 ITER           ETOT              DE          GRAD        DDIFF     DIIS  NEXP   TIME(IT)  TIME(TOT)  DIAG
   1     -114.77690553    -114.77690553     0.00D+00     0.57D-01     0     0       0.05      0.13    start
   2     -114.83734595      -0.06044042     0.12D-01     0.11D-01     1     0       0.05      0.18    diag
   3     -114.87429384      -0.03694789     0.11D-01     0.45D-02     2     0       0.05      0.23    diag
   4     -114.87879257      -0.00449873     0.17D-02     0.22D-02     3     0       0.05      0.28    diag
   5     -114.87958835      -0.00079578     0.10D-02     0.98D-03     4     0       0.05      0.33    diag
   6     -114.87971092      -0.00012257     0.23D-03     0.41D-03     5     0       0.04      0.37    diag
   7     -114.87974191      -0.00003099     0.11D-03     0.23D-03     6     0       0.05      0.42    diag
   8     -114.87974551      -0.00000359     0.33D-04     0.71D-04     7     0       0.07      0.49    fixocc
   9     -114.87974572      -0.00000021     0.91D-05     0.19D-04     8     0       0.06      0.55    diag
  10     -114.87974572      -0.00000001     0.29D-05     0.30D-05     9     0       0.09      0.64    diag/orth
  11     -114.87974572      -0.00000000     0.81D-06     0.10D-05     9     0       0.04      0.68    diag
  12     -114.87974572      -0.00000000     0.25D-06     0.41D-06     9     0       0.05      0.73    diag
  13     -114.87974572      -0.00000000     0.14D-06     0.15D-06     0     0       0.04      0.77    diag

 Final occupancy:   9

 !RHF STATE 1.1 Energy               -114.879745724884
  RHF One-electron energy            -232.127207995227
  RHF Two-electron energy              79.435096895801
  RHF Kinetic energy                  114.571853331179
  RHF Nuclear energy                   37.812365374543
  RHF Virial quotient                  -1.002687330132

 !RHF STATE 1.1 Dipole moment           0.02185972     0.56970047     0.11660383
 Dipole moment /Debye                   0.05556188     1.44803415     0.29637738

 Orbital energies:

           1.1          2.1          3.1          4.1          5.1          6.1          7.1          8.1          9.1         10.1
    -20.563149   -11.264024    -1.276592    -0.902705    -0.614595    -0.603325    -0.567095    -0.434900    -0.402123     0.011775

          11.1
      0.172074


 HOMO      9.1    -0.402123 =     -10.9423eV
 LUMO     10.1     0.011775 =       0.3204eV
 LUMO-HOMO         0.413898 =      11.2627eV

 Orbitals saved in record  2100.2


 **********************************************************************************************************************************
 DATASETS  * FILE   NREC   LENGTH (MB)   RECORD NAMES
              1      18       28.78       500      610      700      900      950      970     1000      129      960     1100   
                                          VAR    BASINP    GEOM    SYMINP    ZMAT    AOBASIS   BASIS     P2S    ABASIS      S 
                                         1400     1410     1200     1210     1080     1600     1650     1700   
                                           T        V       H0       H01     AOSYM     SMH    MOLCAS    OPER   

              2       4        0.49       700     1000      520     2100   
                                         GEOM     BASIS   MCVARS     RHF  

 PROGRAMS   *        TOTAL    HF-SCF       INT
 CPU TIMES  *         1.38      0.78      0.45
 REAL TIME  *         1.25 SEC
 DISK USED  *        29.56 MB (local),      207.60 MB (total)
 GA USED    *         0.00 MB       (max)       0.00 MB       (current)
 **********************************************************************************************************************************


 PROGRAM * MP2 (Closed-shell)     Authors: C. Hampel, H.-J. Werner, 1991, M. Deegan, P.J. Knowles, 1992


 Convergence thresholds:  THRVAR = 1.00D-12  THRDEN = 1.00D-08

 Number of core orbitals:           2 (   2 )
 Number of closed-shell orbitals:   7 (   7 )
 Number of external orbitals:      51 (  51 )

 Molecular orbitals read from record     2100.2  Type=RHF/CANONICAL  

 Number of N-1 electron functions:               7
 Number of N-2 electron functions:              28
 Number of singly external CSFs:               357
 Number of doubly external CSFs:             63903
 Total number of CSFs:                       64261

 Length of J-op  integral file:               0.00 MB
 Length of K-op  integral file:               0.25 MB

 Integral transformation finished. Total CPU:   0.02 sec, npass=  1  Memory used:   0.29 MW

 Memory needed for MP2:                      0.02 MW

 SCS-MP2 correlation energy:           -0.392245916010   (PS=  1.200000  PT=  0.333333)
 SCS-MP2 total energy:               -115.271991640894


  Reference energy                   -114.879745724884
  MP2 singlet pair energy              -0.257673189056
  MP2 triplet pair energy              -0.133454071837
  MP2 correlation energy               -0.391127260893

 !MP2 total energy                   -115.270872985776
