
 Working directory              : /tmp/lme/molpro.zYIQr4j9B5/
 Global scratch directory       : /tmp/lme/molpro.zYIQr4j9B5/
 Wavefunction directory         : /home/lme/wfu/
 Main file repository           : /tmp/lme/molpro.zYIQr4j9B5/

 id        : liedlgroup

 Nodes     nprocs
 sv1-c724     6
 GA implementation: MPI file
 GA implementation (serial work in mppx): MPI file

 Using customized tuning parameters: mindgm=1; mindgv=20; mindgc=4; mindgr=1; noblas=0; minvec=7
 default implementation of scratch files=sf  


 Variables initialized (1025), CPU time= 0.04 sec
 memory, 200, m                                                                  ! Memory Requirements
 gthresh, optgrad=1.d-7,twoint=1.d-14,prefac=1.d-16                            ! Guntram Rezept um numerischen Schmutz zu entfernen
 orient,mass
 geometry = {
  H,    0.7493682,    0.0000000,    0.4424329
  O,    0.0000000,    0.0000000,   -0.1653507
  H,   -0.7493682,    0.0000000,    0.4424329
 }
 
 mass, iso
 basis=vqz
 
 {hf
 start,atden}
 
 CCSD
 
 optg
 {frequencies, symm=auto, print=0,analytical}
 put,molden,h2o_ccsd.molden
 Commands initialized (840), CPU time= 0.03 sec, 684 directives.
 Default parameters read. Elapsed time= 0.44 sec

 Checking input...
 Passed
1


                                         ***  PROGRAM SYSTEM MOLPRO  ***
                                       Copyright, TTI GmbH Stuttgart, 2015
                                    Version 2022.3 linked Wed Nov 30 12:40:34 2022


 **********************************************************************************************************************************
 LABEL *                                                                                 
  (6 PROC) 64 bit mpp version                                                            DATE: 27-Aug-25          TIME: 08:28:27  
 **********************************************************************************************************************************

 SHA1:             e31ec9a5ea85254ab76f59d122cbdd51c71cf98b
 **********************************************************************************************************************************

 Memory per process:       200 MW
 Total memory per node:   1200 MW

 GA preallocation disabled
 GA check disabled

 Variable memory set to 200.0 MW


 THRESHOLDS:

 ZERO    =  1.00D-12  ONEINT  =  1.00D-12  TWOINT  =  1.00D-14  PREFAC  =  1.00D-16  XXXXXX  =  1.00D-09  EORDER  =  1.00D-04
 ENERGY  =  0.00D+00  ETEST   =  0.00D+00  EDENS   =  0.00D+00  THRDEDEF=  1.00D-06  GRADIENT=  1.00D-05  STEP    =  1.00D-03
 ORBITAL =  1.00D-05  CIVEC   =  1.00D-05  COEFF   =  1.00D-04  PRINTCI =  5.00D-02  PUNCHCI =  9.90D+01  OPTGRAD =  1.00D-07
 OPTENERG=  1.00D-06  OPTSTEP =  3.00D-04  THRGRAD =  1.00D-10  COMPRESS=  1.00D-11  VARMIN  =  1.00D-07  VARMAX  =  1.00D-03
 THRDOUB =  0.00D+00  THRDIV  =  1.00D-05  THRRED  =  1.00D-07  THRPSP  =  1.00D+00  THRDC   =  1.00D-10  THRCS   =  1.00D-10
 THRNRM  =  1.00D-08  THREQ   =  0.00D+00  THRDE   =  1.00D+00  THRREF  =  1.00D-05  SPARFAC =  1.00D+00  THRDLP  =  1.00D-07
 THRDIA  =  1.00D-10  THRDLS  =  1.00D-07  THRGPS  =  0.00D+00  THRKEX  =  0.00D+00  THRDIS  =  2.00D-01  THRVAR  =  1.00D-10
 THRLOC  =  1.00D-06  THRGAP  =  1.00D-06  THRLOCT = -1.00D+00  THRGAPT = -1.00D+00  THRORB  =  1.00D-06  THRMLTP =  0.00D+00
 THRCPQCI=  1.00D-10  KEXTA   =  0.00D+00  THRCOARS=  0.00D+00  SYMTOL  =  1.00D-06  GRADTOL =  1.00D-06  THROVL  =  1.00D-08
 THRORTH =  1.00D-08  THRDLOVL= -1.00D+00  GRID    =  1.00D-06  GRIDMAX =  1.00D-03  DTMAX   =  0.00D+00  THROCCDE=  1.00D-01
 THROCCDE=  1.00D-01  THRPRINT=  2.50D-01

 ZCENTRE=MASS


 Geometry recognized as XYZ



 Using masses of most abundant isotopes

 **********************************************************************************************************************************
 SETTING BASIS          =    VQZ


 Recomputing integrals since basis changed


 Using spherical harmonics

 Library entry H      S cc-pVQZ              selected for orbital group  1
 Library entry H      P cc-pVQZ              selected for orbital group  1
 Library entry H      D cc-pVQZ              selected for orbital group  1
 Library entry H      F cc-pVQZ              selected for orbital group  1
 Library entry O      S cc-pVQZ              selected for orbital group  2
 Library entry O      P cc-pVQZ              selected for orbital group  2
 Library entry O      D cc-pVQZ              selected for orbital group  2
 Library entry O      F cc-pVQZ              selected for orbital group  2
 Library entry O      G cc-pVQZ              selected for orbital group  2


 PROGRAM * SEWARD (Integral evaluation for generally contracted gaussian basis sets)     Author: Roland Lindh, 1990

 Geometry written to block  1 of record 700

 Orientation using atomic masses  
 Molecule type: Asymmetric top,     Order of principal axis = 2
 Symmetry elements: X,Y
 Rotational constants:     281.8391796    764.2747781    446.4898054 GHz

 Point group  C2v 



 ATOMIC COORDINATES

 NR  ATOM    CHARGE       X              Y              Z

   1  H       1.00    0.000000000    1.416100665    1.020005300
   2  H       1.00    0.000000000   -1.416100665    1.020005300
   3  O       8.00    0.000000000    0.000000000   -0.128539247

 Bond lengths in Bohr (Angstrom)

 1-3  1.823319958  2-3  1.823319958
     ( 0.964859370)     ( 0.964859370)

 Bond angles

  1-3-2  101.91165288

 NUCLEAR CHARGE:                   10
 NUMBER OF PRIMITIVE AOS:         157
 NUMBER OF SYMMETRY AOS:          132
 NUMBER OF CONTRACTIONS:          115   (   42A1  +   23B1  +   33B2  +   17A2  )
 NUMBER OF INNER CORE ORBITALS:     0   (    0A1  +    0B1  +    0B2  +    0A2  )
 NUMBER OF OUTER CORE ORBITALS:     1   (    1A1  +    0B1  +    0B2  +    0A2  )
 NUMBER OF VALENCE ORBITALS:        6   (    3A1  +    1B1  +    2B2  +    0A2  )


 NUCLEAR REPULSION ENERGY    9.12828373

 Eigenvalues of metric

         1 0.248E-03 0.600E-03 0.167E-02 0.516E-02 0.825E-02 0.995E-02 0.144E-01 0.463E-01
         2 0.859E-02 0.125E-01 0.537E-01 0.122E+00 0.159E+00 0.171E+00 0.275E+00 0.405E+00
         3 0.469E-03 0.300E-02 0.672E-02 0.817E-02 0.133E-01 0.215E-01 0.419E-01 0.611E-01
         4 0.143E-01 0.734E-01 0.133E+00 0.255E+00 0.269E+00 0.444E+00 0.473E+00 0.580E+00


 Contracted 2-electron integrals neglected if value below      1.0D-14
 AO integral compression algorithm  1   Integral accuracy      1.0D-14

     59.769 MB (compressed) written to integral file ( 97.6%)

     Node minimum: 8.651 MB, node maximum: 11.272 MB


 NUMBER OF SORTED TWO-ELECTRON INTEGRALS:     959079.     BUFFER LENGTH:  32768
 NUMBER OF SEGMENTS:   1  SEGMENT LENGTH:     959079      RECORD LENGTH: 524288

 Memory used in sort:       1.52 MW

 SORT1 READ     7707781. AND WROTE      886003. INTEGRALS IN      3 RECORDS. CPU TIME:     0.66 SEC, REAL TIME:     1.46 SEC
 SORT2 READ     5356489. AND WROTE     5772183. INTEGRALS IN    252 RECORDS. CPU TIME:     0.07 SEC, REAL TIME:     0.10 SEC

 Node minimum:      955553.  Node maximum:      968194. integrals

 OPERATOR DM      FOR CENTER  0  COORDINATES:    0.000000    0.000000    0.000000


 **********************************************************************************************************************************
 DATASETS  * FILE   NREC   LENGTH (MB)   RECORD NAMES
              1      18       28.75       500      610      700      900      950      970     1000      129      960     1100   
                                          VAR    BASINP    GEOM    SYMINP    ZMAT    AOBASIS   BASIS     P2S    ABASIS      S 
                                         1400     1410     1200     1210     1080     1600     1650     1700   
                                           T        V       H0       H01     AOSYM     SMH    MOLCAS    OPER   

 PROGRAMS   *        TOTAL       INT
 CPU TIMES  *         3.51      3.06
 REAL TIME  *         5.22 SEC
 DISK USED  *        29.07 MB (local),      289.26 MB (total)
 GA USED    *         0.00 MB       (max)       0.00 MB       (current)
 **********************************************************************************************************************************


 Program * Restricted Hartree-Fock

 Orbital guess generated from atomic densities. Full valence occupancy:    4   1   2   0

 Initial occupancy:   3   1   1   0

 NELEC=   10   SYM=1   MS2= 0   THRE=1.0D-08   THRD=1.0D-06   THRG=1.0D-06  HFMA2=F  DIIS_START=2   DIIS_MAX=10   DIIS_INCORE=F

 Level shifts:    0.00 (CLOSED)    0.00 (OPEN)    0.30 (GAP_MIN)

 ITER           ETOT              DE          GRAD        DDIFF     DIIS  NEXP   TIME(IT)  TIME(TOT)  DIAG
   1      -76.02513447     -76.02513447     0.00D+00     0.10D+00     0     0       0.05      0.14    start
   2      -76.05278869      -0.02765422     0.17D-01     0.16D-01     1     0       0.09      0.23    diag
   3      -76.06367496      -0.01088627     0.10D-01     0.59D-02     2     0       0.09      0.32    diag
   4      -76.06386378      -0.00018882     0.98D-03     0.79D-03     3     0       0.08      0.40    diag
   5      -76.06388447      -0.00002069     0.27D-03     0.30D-03     4     0       0.08      0.48    diag
   6      -76.06388573      -0.00000125     0.55D-04     0.81D-04     5     0       0.07      0.55    diag
   7      -76.06388578      -0.00000005     0.10D-04     0.17D-04     6     0       0.08      0.63    diag
   8      -76.06388578      -0.00000000     0.17D-05     0.28D-05     7     0       0.08      0.71    fixocc
   9      -76.06388578      -0.00000000     0.17D-06     0.39D-06     8     0       0.07      0.78    diag
  10      -76.06388578      -0.00000000     0.28D-07     0.44D-07     0     0       0.14      0.92    diag/orth

 Final occupancy:   3   1   1   0

 !RHF STATE 1.1 Energy                -76.063885776142
  RHF One-electron energy            -122.966419396046
  RHF Two-electron energy              37.774249891914
  RHF Kinetic energy                   75.981459379354
  RHF Nuclear energy                    9.128283727990
  RHF Virial quotient                  -1.001084822501

 !RHF STATE 1.1 Dipole moment           0.00000000     0.00000000     0.80859267
 Dipole moment /Debye                   0.00000000     0.00000000     2.05523758

 Orbital energies:

           1.1          2.1          3.1          4.1          5.1
    -20.562326    -1.347503    -0.585624     0.115966     0.463422

           1.2          2.2          3.2
     -0.508336     0.583534     0.709725

           1.3          2.3          3.3
     -0.705171     0.171157     0.444432

           1.4          2.4
      0.659599     1.482197


 HOMO      1.2    -0.508336 =     -13.8325eV
 LUMO      4.1     0.115966 =       3.1556eV
 LUMO-HOMO         0.624302 =      16.9881eV

 Orbitals saved in record  2100.2


 **********************************************************************************************************************************
 DATASETS  * FILE   NREC   LENGTH (MB)   RECORD NAMES
              1      18       28.76       500      610      700      900      950      970     1000      129      960     1100   
                                          VAR    BASINP    GEOM    SYMINP    ZMAT    AOBASIS   BASIS     P2S    ABASIS      S 
                                         1400     1410     1200     1210     1080     1600     1650     1700   
                                           T        V       H0       H01     AOSYM     SMH    MOLCAS    OPER   

              2       4        0.45       700     1000      520     2100   
                                         GEOM     BASIS   MCVARS     RHF  

 PROGRAMS   *        TOTAL    HF-SCF       INT
 CPU TIMES  *         4.48      0.97      3.06
 REAL TIME  *         6.10 SEC
 DISK USED  *        29.50 MB (local),      291.88 MB (total)
 GA USED    *         0.00 MB       (max)       0.00 MB       (current)
 **********************************************************************************************************************************


 PROGRAM * CCSD (Closed-shell coupled cluster)     Authors: C. Hampel, H.-J. Werner, 1991, M. Deegan, P.J. Knowles, 1992


 Convergence thresholds:  THRVAR = 1.00D-12  THRDEN = 1.00D-08

 Using ITF CCSD gradient implementation

 Number of core orbitals:           1 (   1   0   0   0 )
 Number of closed-shell orbitals:   4 (   2   1   1   0 )
 Number of external orbitals:     110 (  39  22  32  17 )

 Molecular orbitals read from record     2100.2  Type=RHF/CANONICAL  

 Integral transformation finished. Total CPU:  26.05 sec, npass=  1  Memory used:   0.39 MW
  Reference energy                    -76.063885776142

  MP2 correlation energy               -0.283579477796
  MP2 total energy                    -76.347465253938

 ITER.      SQ.NORM     CORR.ENERGY   TOTAL ENERGY   ENERGY CHANGE        DEN1      VAR(S)    VAR(P)  DIIS     TIME
   1      1.06286239    -0.28630050   -76.35018627    -0.00272102     0.00277591  6.24e-04  9.17e-04  1  1     3.48
   2      1.06617569    -0.28654809   -76.35043386    -0.00024759    -0.00485107  3.40e-05  1.02e-04  2  2     7.05
   3      1.06699879    -0.28663873   -76.35052450    -0.00009064    -0.00042562  1.44e-06  1.59e-05  3  3    10.50
   4      1.06748233    -0.28665212   -76.35053790    -0.00001339    -0.00042925  6.62e-08  1.72e-06  4  4    13.87
   5      1.06763018    -0.28664467   -76.35053045     0.00000745    -0.00010535  5.20e-09  1.43e-07  5  5    16.00
   6      1.06766770    -0.28664312   -76.35052889     0.00000155    -0.00002522  7.72e-11  4.27e-09  6  0    19.49
   7      1.06767134    -0.28664261   -76.35052838     0.00000051    -0.00000245  2.73e-11  1.89e-10  6  1    23.09
   8      1.06767129    -0.28664257   -76.35052835     0.00000004    -0.00000006  1.52e-13  1.10e-11  6  2    25.92
   9      1.06767126    -0.28664257   -76.35052835    -0.00000000     0.00000002  2.56e-14  8.91e-13          29.44
 WARNING: Named clock 3265 does not exist. Cannot pop it.

 Norm of t1 vector:      0.03004176     S-energy:     -0.00000000   T1 diagnostic:  0.00751044

 Time per iteration:                      3.27 sec

 RESULTS
 =======

  Reference energy                    -76.063885776142
  CCSD correlation energy              -0.286642572094
 !CCSD total energy                   -76.350528348236

 Starting CP-CCSD iterations.   Author: W. Gyorffy (2012)

 ITER.      NRM1           NRM2      VAR(S)+VAR(P)   DIIS    TIME
   1     0.00056894     0.20704224     1.57e-04      1  1    2.90
   2     0.00051537     0.20581886     8.10e-06      2  2    6.67
   3     0.00048989     0.20567669     9.15e-07      3  3    9.95
   4     0.00047734     0.20559737     8.79e-08      4  4   13.52
   5     0.00047279     0.20559437     7.59e-09      5  5   16.39
   6     0.00047162     0.20559564     1.05e-09      6  0   20.18
   7     0.00047126     0.20559741     1.26e-10      6  1   23.92
   8     0.00047117     0.20559750     1.53e-11      6  2   27.69
   9     0.00047116     0.20559733     1.34e-12      6  3   30.85
  10     0.00047115     0.20559722     5.29e-14             34.58

 WARNING: Named clock 3265 does not exist. Cannot pop it.

 Time per iteration:                      3.46 sec

 CPHF start vector      0.2 not found

 Starting Coupled-perturbed Hartree-Fock, convergence threshold= 1.0D-06

 ITER   MIC  DIIS      VAR         VARC       CPU
   1     0     1    0.21D-02    0.68D-03     0.00
   2     4     2    0.11D-03    0.79D-05     0.02
   3     4     3    0.23D-05    0.70D-06     0.04
   4     1     4    0.32D-06    0.17D-07     0.04

 CPHF convergence reached in  4 macroiterations and    9 microiterations.   Accuracy: 3.1536D-07

 CPHF solution written to record  8500.2

 Dipole moments (unrelaxed):            0.00000000     0.00000000     0.76313299
 Orbital relaxation contribution:      -0.00000000    -0.00000000     0.00339558
 !CCSD STATE 1.1 Dipole moment          0.00000000     0.00000000     0.76652857
 Dipole moment /Debye                   0.00000000     0.00000000     1.94832130

 CPU-time for coupled-perturbed hartree-fock:          0.17 sec

 Number of N-1 electron functions:               4
 Number of N-2 electron functions:              10
 Number of singly external CSFs:               132
 Number of doubly external CSFs:             25004
 Total number of CSFs:                       25137

 CCSD gradient info saved on record        55555.1




 **********************************************************************************************************************************
 DATASETS  * FILE   NREC   LENGTH (MB)   RECORD NAMES
              1      20       37.26       500      610      700      900      950      970     1000      129      960     1100   
                                          VAR    BASINP    GEOM    SYMINP    ZMAT    AOBASIS   BASIS     P2S    ABASIS      S 
                                         1400     1410     1200     1210     1080     1600     1650     1700     1380    55555   
                                           T        V       H0       H01     AOSYM     SMH    MOLCAS    OPER     JKOP     CCSD   

              2       5        0.62       700     1000      520     2100     8500   
                                         GEOM     BASIS   MCVARS     RHF     CPHF   

 PROGRAMS   *        TOTAL      CCSD    HF-SCF       INT
 CPU TIMES  *       110.75    106.27      0.97      3.06
 REAL TIME  *       104.02 SEC
 DISK USED  *        37.94 MB (local),      342.51 MB (total)
 SF USED    *        28.12 MB
 GA USED    *         0.00 MB       (max)       0.00 MB       (current)
 **********************************************************************************************************************************


 PROGRAM * OPT (Geometry optimization)     Authors: F. Eckert and H.-J. Werner


 BFGS update of hessian

 *** Long output written to logfile /home/lme/overlap_integral_gaussian/molpro_files/h2o/ccsd/VQZ/h2o_vqz_ccsd.log ***


 Geometry optimization using default procedure for command CCSD

 Geometry written to block  1 of record 700

 Entering BMAT geometry-optimization, modelhes=F
 Optimization method: RF

 ITER.   ENERGY(OLD)    ENERGY(NEW)      DE          GRADMAX     GRADNORM    GRADRMS     STEPMAX     STEPLEN     STEPRMS   CPU-time
   1   -76.35052835   -76.35078792    -0.00025957  0.01563868  0.02010590  0.00670197  0.01902782  0.02367247  0.01366731    143.27
   2   -76.35078792   -76.35081223    -0.00002431  0.00337850  0.00414826  0.00138275  0.00875520  0.01432049  0.00826794    196.87
   3   -76.35081223   -76.35081232    -0.00000009  0.00016792  0.00024559  0.00008186  0.00061882  0.00094742  0.00054699    252.39
   4   -76.35081232   -76.35081232     0.00000000  0.00000336  0.00000520  0.00000173  0.00001123  0.00001670  0.00000964    349.63
   5   -76.35081232   -76.35081232    -0.00000000  0.00000299  0.00000371  0.00000124  0.00001033  0.00001886  0.00001089    408.14
   6   -76.35081232   -76.35081232     0.00000000  0.00000266  0.00000368  0.00000123  0.00000770  0.00001322  0.00000763    464.15
   7   -76.35081232   -76.35081232    -0.00000000  0.00000163  0.00000200  0.00000067  0.00000334  0.00000575  0.00000332    553.13
   8   -76.35081232   -76.35081232     0.00000000  0.00000163  0.00000204  0.00000068  0.00002723  0.00004463  0.00002577    687.08
   9   -76.35081232   -76.35081232    -0.00000000  0.00001004  0.00001231  0.00000410  0.00002416  0.00004002  0.00002310    822.15
  10   -76.35081232   -76.35081232     0.00000000  0.00000094  0.00000117  0.00000039  0.00000268  0.00000452  0.00000261    953.62
  11   -76.35081232   -76.35081232     0.00000000  0.00000096  0.00000118  0.00000039  0.00001890  0.00003058  0.00001766   1010.40
  12   -76.35081232   -76.35081232     0.00000000  0.00000753  0.00000922  0.00000307  0.00001683  0.00002728  0.00001575   1066.51
  13   -76.35081232   -76.35081232    -0.00000000  0.00000086  0.00000105  0.00000035  0.00000214  0.00000345  0.00000199   1122.87
  14   -76.35081232   -76.35081232     0.00000000  0.00000077  0.00000095  0.00000032  0.00001289  0.00002046  0.00001181   1176.97
  15   -76.35081232   -76.35081232    -0.00000000  0.00000529  0.00000648  0.00000216  0.00001129  0.00001795  0.00001036   1232.91
  16   -76.35081232   -76.35081232    -0.00000000  0.00000065  0.00000080  0.00000027  0.00000163  0.00000262  0.00000151   1288.71
  17   -76.35081232   -76.35081232     0.00000000  0.00000060  0.00000074  0.00000025  0.00001337  0.00002119  0.00001223   1343.54
  18   -76.35081232   -76.35081232     0.00000000  0.00000553  0.00000679  0.00000226  0.00001206  0.00001912  0.00001104   1399.44
  19   -76.35081232   -76.35081232     0.00000000  0.00000054  0.00000066  0.00000022  0.00000133  0.00000212  0.00000122   1454.52
  20   -76.35081232   -76.35081232    -0.00000000  0.00000049  0.00000061  0.00000020  0.00001041  0.00001642  0.00000948   1510.47
  21   -76.35081232   -76.35081232    -0.00000000  0.00000434  0.00000533  0.00000178  0.00000936  0.00001476  0.00000852   1566.17
  22   -76.35081232   -76.35081232     0.00000000  0.00000372  0.00000456  0.00000152  0.00006585  0.00010472  0.00006046   1622.82
  23   -76.35081232   -76.35081232    -0.00000000  0.00002634  0.00003230  0.00001077  0.00005766  0.00009166  0.00005292   1683.12
  24   -76.35081232   -76.35081232     0.00000000  0.00000301  0.00000369  0.00000123  0.00000747  0.00001189  0.00000686   1741.00
  25   -76.35081232   -76.35081232     0.00000000  0.00000250  0.00000306  0.00000102  0.00003815  0.00006090  0.00003516   1797.34
  26   -76.35081232   -76.35081232    -0.00000000  0.00001557  0.00001908  0.00000636  0.00003285  0.00005242  0.00003027   1855.27
  27   -76.35081232   -76.35081232    -0.00000000  0.00000236  0.00000289  0.00000096  0.00000584  0.00000931  0.00000538   1917.44
  28   -76.35081232   -76.35081232     0.00000000  0.00000199  0.00000244  0.00000081  0.00003223  0.00005144  0.00002970   1975.47
  29   -76.35081232   -76.35081232    -0.00000000  0.00001312  0.00001608  0.00000536  0.00002799  0.00004466  0.00002579   2035.45
  30   -76.35081232   -76.35081232     0.00000000  0.00000186  0.00000228  0.00000076  0.00000462  0.00000737  0.00000425   2097.60
  31   -76.35081232   -76.35081232     0.00000000  0.00000157  0.00000192  0.00000064  0.00002512  0.00004010  0.00002315   2160.69
  32   -76.35081232   -76.35081232    -0.00000000  0.00001022  0.00001253  0.00000418  0.00002177  0.00003476  0.00002007   2222.13
  33   -76.35081232   -76.35081232     0.00000000  0.00000142  0.00000174  0.00000058  0.00000355  0.00000570  0.00000329   2283.45
  34   -76.35081232   -76.35081232     0.00000000  0.00000125  0.00000154  0.00000051  0.00002128  0.00003354  0.00001937   2343.24
  35   -76.35081232   -76.35081232     0.00000000  0.00000886  0.00001087  0.00000362  0.00001865  0.00002939  0.00001697   2401.92
  36   -76.35081232   -76.35081232    -0.00000000  0.00000108  0.00000133  0.00000044  0.00000269  0.00000433  0.00000250   2457.00
 icen=                    1   j=                    2   zcoord=   1.4263834535085325       x=   1.4263854336970048     
 icen=                    1   j=                    3   zcoord=   1.0059636103533574       x=   1.0059622646018700     
 icen=                    2   j=                    3   zcoord= -0.10045586692743702       x= -0.10045317542446153     
 icen=                    3   j=                    2   zcoord=  -1.4263834535085325       x=  -1.4263854336970048     
 icen=                    3   j=                    3   zcoord=   1.0059636103533574       x=   1.0059622646018700     
 ? Error
 ? inconsistent coordinates
 ? The problem occurs in opt_bmat

 GLOBAL ERROR fehler on processor   0                                         
