
 Nodes     nprocs
 sv1-c724     6
 GA implementation: MPI file
 GA implementation (serial work in mppx): MPI file

 Using customized tuning parameters: mindgm=1; mindgv=20; mindgc=4; mindgr=1; noblas=0; minvec=7
 default implementation of scratch files=sf


 Variables initialized (1025), CPU time= 0.06 sec
 Commands initialized (840), CPU time= 0.05 sec, 684 directives.
 Default parameters read. Elapsed time= 0.44 sec

 Checking input...
 Passed
1


                                         ***  PROGRAM SYSTEM MOLPRO  ***
                                       Copyright, TTI GmbH Stuttgart, 2015
                                    Version 2022.3 linked Wed Nov 30 12:40:34 2022


 **********************************************************************************************************************************
 LABEL *
  (6 PROC) 64 bit mpp version                                                            DATE: 27-Aug-25          TIME: 08:28:27
 **********************************************************************************************************************************

 SHA1:             e31ec9a5ea85254ab76f59d122cbdd51c71cf98b
 **********************************************************************************************************************************

 Memory per process:       200 MW
 Total memory per node:   1200 MW

 GA preallocation disabled
 GA check disabled

 Variable memory set to 200.0 MW


 THRESHOLDS:

 ZERO    =  1.00D-12  ONEINT  =  1.00D-12  TWOINT  =  1.00D-14  PREFAC  =  1.00D-16  XXXXXX  =  1.00D-09  EORDER  =  1.00D-04
 ENERGY  =  0.00D+00  ETEST   =  0.00D+00  EDENS   =  0.00D+00  THRDEDEF=  1.00D-06  GRADIENT=  1.00D-05  STEP    =  1.00D-03
 ORBITAL =  1.00D-05  CIVEC   =  1.00D-05  COEFF   =  1.00D-04  PRINTCI =  5.00D-02  PUNCHCI =  9.90D+01  OPTGRAD =  1.00D-07
 OPTENERG=  1.00D-06  OPTSTEP =  3.00D-04  THRGRAD =  1.00D-10  COMPRESS=  1.00D-11  VARMIN  =  1.00D-07  VARMAX  =  1.00D-03
 THRDOUB =  0.00D+00  THRDIV  =  1.00D-05  THRRED  =  1.00D-07  THRPSP  =  1.00D+00  THRDC   =  1.00D-10  THRCS   =  1.00D-10
 THRNRM  =  1.00D-08  THREQ   =  0.00D+00  THRDE   =  1.00D+00  THRREF  =  1.00D-05  SPARFAC =  1.00D+00  THRDLP  =  1.00D-07
 THRDIA  =  1.00D-10  THRDLS  =  1.00D-07  THRGPS  =  0.00D+00  THRKEX  =  0.00D+00  THRDIS  =  2.00D-01  THRVAR  =  1.00D-10
 THRLOC  =  1.00D-06  THRGAP  =  1.00D-06  THRLOCT = -1.00D+00  THRGAPT = -1.00D+00  THRORB  =  1.00D-06  THRMLTP =  0.00D+00
 THRCPQCI=  1.00D-10  KEXTA   =  0.00D+00  THRCOARS=  0.00D+00  SYMTOL  =  1.00D-06  GRADTOL =  1.00D-06  THROVL  =  1.00D-08
 THRORTH =  1.00D-08  THRDLOVL= -1.00D+00  GRID    =  1.00D-06  GRIDMAX =  1.00D-03  DTMAX   =  0.00D+00  THROCCDE=  1.00D-01
 THROCCDE=  1.00D-01  THRPRINT=  2.50D-01

 ZCENTRE=MASS


 Geometry recognized as XYZ



 Using masses of most abundant isotopes

 **********************************************************************************************************************************
 SETTING BASIS          =    VQZ


 Recomputing integrals since basis changed


 Using spherical harmonics

 Library entry H      S cc-pVQZ              selected for orbital group  1
 Library entry H      P cc-pVQZ              selected for orbital group  1
 Library entry H      D cc-pVQZ              selected for orbital group  1
 Library entry H      F cc-pVQZ              selected for orbital group  1
 Library entry O      S cc-pVQZ              selected for orbital group  2
 Library entry O      P cc-pVQZ              selected for orbital group  2
 Library entry O      D cc-pVQZ              selected for orbital group  2
 Library entry O      F cc-pVQZ              selected for orbital group  2
 Library entry O      G cc-pVQZ              selected for orbital group  2


 PROGRAM * SEWARD (Integral evaluation for generally contracted gaussian basis sets)     Author: Roland Lindh, 1990

 Geometry written to block  1 of record 700

 Orientation using atomic masses
 Molecule type: Asymmetric top,     Order of principal axis = 2
 Symmetry elements: X,Y
 Rotational constants:     281.8391796    764.2747781    446.4898054 GHz

 Point group  C2v



 ATOMIC COORDINATES

 NR  ATOM    CHARGE       X              Y              Z

   1  H       1.00    0.000000000    1.416100665    1.020005300
   2  H       1.00    0.000000000   -1.416100665    1.020005300
   3  O       8.00    0.000000000    0.000000000   -0.128539247

 Bond lengths in Bohr (Angstrom)

 1-3  1.823319958  2-3  1.823319958
     ( 0.964859370)     ( 0.964859370)

 Bond angles

  1-3-2  101.91165288

 NUCLEAR CHARGE:                   10
 NUMBER OF PRIMITIVE AOS:         157
 NUMBER OF SYMMETRY AOS:          132
 NUMBER OF CONTRACTIONS:          115   (   42A1  +   23B1  +   33B2  +   17A2  )
 NUMBER OF INNER CORE ORBITALS:     0   (    0A1  +    0B1  +    0B2  +    0A2  )
 NUMBER OF OUTER CORE ORBITALS:     1   (    1A1  +    0B1  +    0B2  +    0A2  )
 NUMBER OF VALENCE ORBITALS:        6   (    3A1  +    1B1  +    2B2  +    0A2  )


 NUCLEAR REPULSION ENERGY    9.12828373

 Eigenvalues of metric

         1 0.248E-03 0.600E-03 0.167E-02 0.516E-02 0.825E-02 0.995E-02 0.144E-01 0.463E-01
         2 0.859E-02 0.125E-01 0.537E-01 0.122E+00 0.159E+00 0.171E+00 0.275E+00 0.405E+00
         3 0.469E-03 0.300E-02 0.672E-02 0.817E-02 0.133E-01 0.215E-01 0.419E-01 0.611E-01
         4 0.143E-01 0.734E-01 0.133E+00 0.255E+00 0.269E+00 0.444E+00 0.473E+00 0.580E+00


 Contracted 2-electron integrals neglected if value below      1.0D-14
 AO integral compression algorithm  1   Integral accuracy      1.0D-14

     59.769 MB (compressed) written to integral file ( 97.6%)

     Node minimum: 8.651 MB, node maximum: 11.272 MB


 NUMBER OF SORTED TWO-ELECTRON INTEGRALS:     968194.     BUFFER LENGTH:  32768
 NUMBER OF SEGMENTS:   1  SEGMENT LENGTH:     968194      RECORD LENGTH: 524288

 Memory used in sort:       1.53 MW

 SORT1 READ     7707781. AND WROTE      899043. INTEGRALS IN      3 RECORDS. CPU TIME:     0.74 SEC, REAL TIME:     1.48 SEC
 SORT2 READ     5356489. AND WROTE     5772183. INTEGRALS IN    252 RECORDS. CPU TIME:     0.09 SEC, REAL TIME:     0.10 SEC

 Node minimum:      955553.  Node maximum:      968194. integrals

 OPERATOR DM      FOR CENTER  0  COORDINATES:    0.000000    0.000000    0.000000


 **********************************************************************************************************************************
 DATASETS  * FILE   NREC   LENGTH (MB)   RECORD NAMES
              1      18       28.75       500      610      700      900      950      970     1000      129      960     1100
                                          VAR    BASINP    GEOM    SYMINP    ZMAT    AOBASIS   BASIS     P2S    ABASIS      S
                                         1400     1410     1200     1210     1080     1600     1650     1700
                                           T        V       H0       H01     AOSYM     SMH    MOLCAS    OPER

 PROGRAMS   *        TOTAL       INT
 CPU TIMES  *         3.64      3.05
 REAL TIME  *         5.22 SEC
 DISK USED  *        29.07 MB (local),      289.26 MB (total)
 GA USED    *         0.00 MB       (max)       0.00 MB       (current)
 **********************************************************************************************************************************


 Program * Restricted Hartree-Fock

 Orbital guess generated from atomic densities. Full valence occupancy:    4   1   2   0

 Initial occupancy:   3   1   1   0

 NELEC=   10   SYM=1   MS2= 0   THRE=1.0D-08   THRD=1.0D-06   THRG=1.0D-06  HFMA2=F  DIIS_START=2   DIIS_MAX=10   DIIS_INCORE=F

 Level shifts:    0.00 (CLOSED)    0.00 (OPEN)    0.30 (GAP_MIN)

 ITER           ETOT              DE          GRAD        DDIFF     DIIS  NEXP   TIME(IT)  TIME(TOT)  DIAG
   1      -76.02513447     -76.02513447     0.00D+00     0.10D+00     0     0       0.05      0.10    start
   2      -76.05278869      -0.02765422     0.17D-01     0.16D-01     1     0       0.04      0.14    diag
   3      -76.06367496      -0.01088627     0.10D-01     0.59D-02     2     0       0.07      0.21    diag
   4      -76.06386378      -0.00018882     0.98D-03     0.79D-03     3     0       0.04      0.25    diag
   5      -76.06388447      -0.00002069     0.27D-03     0.30D-03     4     0       0.05      0.30    diag
   6      -76.06388573      -0.00000125     0.55D-04     0.81D-04     5     0       0.05      0.35    diag
   7      -76.06388578      -0.00000005     0.10D-04     0.17D-04     6     0       0.06      0.41    diag
   8      -76.06388578      -0.00000000     0.17D-05     0.28D-05     7     0       0.05      0.46    fixocc
   9      -76.06388578      -0.00000000     0.17D-06     0.39D-06     8     0       0.06      0.52    diag
  10      -76.06388578      -0.00000000     0.28D-07     0.44D-07     0     0       0.12      0.64    diag/orth

 Final occupancy:   3   1   1   0

 !RHF STATE 1.1 Energy                -76.063885776142
  RHF One-electron energy            -122.966419396046
  RHF Two-electron energy              37.774249891914
  RHF Kinetic energy                   75.981459379354
  RHF Nuclear energy                    9.128283727990
  RHF Virial quotient                  -1.001084822501

 !RHF STATE 1.1 Dipole moment           0.00000000     0.00000000     0.80859267
 Dipole moment /Debye                   0.00000000     0.00000000     2.05523758

 Orbital energies:

           1.1          2.1          3.1          4.1          5.1
    -20.562326    -1.347503    -0.585624     0.115966     0.463422

           1.2          2.2          3.2
     -0.508336     0.583534     0.709725

           1.3          2.3          3.3
     -0.705171     0.171157     0.444432

           1.4          2.4
      0.659599     1.482197


 HOMO      1.2    -0.508336 =     -13.8325eV
 LUMO      4.1     0.115966 =       3.1556eV
 LUMO-HOMO         0.624302 =      16.9881eV

 Orbitals saved in record  2100.2


 **********************************************************************************************************************************
 DATASETS  * FILE   NREC   LENGTH (MB)   RECORD NAMES
              1      18       28.76       500      610      700      900      950      970     1000      129      960     1100
                                          VAR    BASINP    GEOM    SYMINP    ZMAT    AOBASIS   BASIS     P2S    ABASIS      S
                                         1400     1410     1200     1210     1080     1600     1650     1700
                                           T        V       H0       H01     AOSYM     SMH    MOLCAS    OPER

              2       4        0.45       700     1000      520     2100
                                         GEOM     BASIS   MCVARS     RHF

 PROGRAMS   *        TOTAL    HF-SCF       INT
 CPU TIMES  *         4.31      0.67      3.05
 REAL TIME  *         6.10 SEC
 DISK USED  *        29.50 MB (local),      291.88 MB (total)
 GA USED    *         0.00 MB       (max)       0.00 MB       (current)
 **********************************************************************************************************************************


 PROGRAM * CCSD (Closed-shell coupled cluster)     Authors: C. Hampel, H.-J. Werner, 1991, M. Deegan, P.J. Knowles, 1992


 Convergence thresholds:  THRVAR = 1.00D-12  THRDEN = 1.00D-08

 Using ITF CCSD gradient implementation

 Number of core orbitals:           1 (   1   0   0   0 )
 Number of closed-shell orbitals:   4 (   2   1   1   0 )
 Number of external orbitals:     110 (  39  22  32  17 )

 Molecular orbitals read from record     2100.2  Type=RHF/CANONICAL

 Integral transformation finished. Total CPU:  25.43 sec, npass=  1  Memory used:   0.39 MW
  Reference energy                    -76.063885776142

  MP2 correlation energy               -0.283579477796
  MP2 total energy                    -76.347465253938

 ITER.      SQ.NORM     CORR.ENERGY   TOTAL ENERGY   ENERGY CHANGE        DEN1      VAR(S)    VAR(P)  DIIS     TIME
   1      1.06286239    -0.28630050   -76.35018627    -0.00272102     0.00277591  6.24e-04  9.17e-04  1  1     2.29
   2      1.06617569    -0.28654809   -76.35043386    -0.00024759    -0.00485107  3.40e-05  1.02e-04  2  2     5.00
   3      1.06699879    -0.28663873   -76.35052450    -0.00009064    -0.00042562  1.44e-06  1.59e-05  3  3     7.69
   4      1.06748233    -0.28665212   -76.35053790    -0.00001339    -0.00042925  6.62e-08  1.72e-06  4  4    10.38
   5      1.06763018    -0.28664467   -76.35053045     0.00000745    -0.00010535  5.20e-09  1.43e-07  5  5    11.93
   6      1.06766770    -0.28664312   -76.35052889     0.00000155    -0.00002522  7.72e-11  4.27e-09  6  0    14.63
   7      1.06767134    -0.28664261   -76.35052838     0.00000051    -0.00000245  2.73e-11  1.89e-10  6  1    17.40
   8      1.06767129    -0.28664257   -76.35052835     0.00000004    -0.00000006  1.52e-13  1.10e-11  6  2    19.78
   9      1.06767126    -0.28664257   -76.35052835    -0.00000000     0.00000002  2.56e-14  8.91e-13          22.02
 WARNING: Named clock 3265 does not exist. Cannot pop it.

 Norm of t1 vector:      0.03004176     S-energy:     -0.00000000   T1 diagnostic:  0.00751044

 Time per iteration:                      2.45 sec

 RESULTS
 =======

  Reference energy                    -76.063885776142
  CCSD correlation energy              -0.286642572094
 !CCSD total energy                   -76.350528348236

 Starting CP-CCSD iterations.   Author: W. Gyorffy (2012)

 ITER.      NRM1           NRM2      VAR(S)+VAR(P)   DIIS    TIME
   1     0.00056894     0.20704224     1.57e-04      1  1    2.70
   2     0.00051537     0.20581886     8.10e-06      2  2    5.16
   3     0.00048989     0.20567669     9.15e-07      3  3    7.85
   4     0.00047734     0.20559737     8.79e-08      4  4   10.81
   5     0.00047279     0.20559437     7.59e-09      5  5   14.28
   6     0.00047162     0.20559564     1.05e-09      6  0   17.55
   7     0.00047126     0.20559741     1.26e-10      6  1   20.14
   8     0.00047117     0.20559750     1.53e-11      6  2   23.21
   9     0.00047116     0.20559733     1.34e-12      6  3   26.74
  10     0.00047115     0.20559722     5.29e-14             29.06

 WARNING: Named clock 3265 does not exist. Cannot pop it.

 Time per iteration:                      2.91 sec

 CPHF start vector      0.2 not found

 Starting Coupled-perturbed Hartree-Fock, convergence threshold= 1.0D-06

 ITER   MIC  DIIS      VAR         VARC       CPU
   1     0     1    0.21D-02    0.68D-03     0.01
   2     4     2    0.11D-03    0.79D-05     0.07
   3     4     3    0.23D-05    0.70D-06     0.12
   4     1     4    0.32D-06    0.17D-07     0.14

 CPHF convergence reached in  4 macroiterations and    9 microiterations.   Accuracy: 3.1536D-07

 CPHF solution written to record  8500.2

 Dipole moments (unrelaxed):            0.00000000     0.00000000     0.76313299
 Orbital relaxation contribution:      -0.00000000    -0.00000000     0.00339558
 !CCSD STATE 1.1 Dipole moment          0.00000000     0.00000000     0.76652857
 Dipole moment /Debye                   0.00000000     0.00000000     1.94832130

 CPU-time for coupled-perturbed hartree-fock:          0.27 sec

 Number of N-1 electron functions:               4
 Number of N-2 electron functions:              10
 Number of singly external CSFs:               132
 Number of doubly external CSFs:             25004
 Total number of CSFs:                       25137

 CCSD gradient info saved on record        55555.1




 **********************************************************************************************************************************
 DATASETS  * FILE   NREC   LENGTH (MB)   RECORD NAMES
              1      20       37.26       500      610      700      900      950      970     1000      129      960     1100
                                          VAR    BASINP    GEOM    SYMINP    ZMAT    AOBASIS   BASIS     P2S    ABASIS      S
                                         1400     1410     1200     1210     1080     1600     1650     1700     1380    55555
                                           T        V       H0       H01     AOSYM     SMH    MOLCAS    OPER     JKOP     CCSD

              2       5        0.62       700     1000      520     2100     8500
                                         GEOM     BASIS   MCVARS     RHF     CPHF

 PROGRAMS   *        TOTAL      CCSD    HF-SCF       INT
 CPU TIMES  *        97.33     93.00      0.67      3.05
 REAL TIME  *       104.02 SEC
 DISK USED  *        37.94 MB (local),      342.51 MB (total)
 SF USED    *        27.95 MB
 GA USED    *         0.00 MB       (max)       0.00 MB       (current)
 **********************************************************************************************************************************


 PROGRAM * OPT (Geometry optimization)     Authors: F. Eckert and H.-J. Werner


 BFGS update of hessian

 Running default procedure: HF-SCF000  CCSD

 Geometry optimization using default procedure for command CCSD

 Geometry written to block  1 of record 700

 PROGRAM * ALASKA (Gradient of the energy)     Author: R. Lindh


 CCSD Gradient info restored from record   55555.1

 Number of core orbitals:           1 (   1   0   0   0 )
 Number of closed-shell orbitals:   4 (   2   1   1   0 )
 Number of external orbitals:     110 (  39  22  32  17 )

 Integral thresholds in T2TRAN:            1.0D-10 (PROD)

 Available memory for Transformation: 196747809 words
 Memory needed for incore algorithm:     525131 words
 Minimum memory needed:                  320069 words

 Memory used for transformation:           0.79 MW
 Available memory for gradients:         197.96 MW

 CPU for transformation:                  11.40 sec
 CPU for integrals and gradient:          15.99 sec
 Total CPU:                               28.32 sec

 Prescreening statistics:
 ========================

 Total number of shell quadruplets:        1.70D+02
 Number of shell quadruplets processed:    1.70D+02 (100.00%)

 CCSD GRADIENT FOR STATE 1.1

 Atom          dE/dx               dE/dy               dE/dz

   1         0.000000000         0.004324066         0.007819338
   2         0.000000000        -0.004324066         0.007819338
   3         0.000000000         0.000000000        -0.015638675

 Nuclear force contribution to virial =         0.030208341

 Entering BMAT geometry-optimization, modelhes=F
 Reading points 1 to 1 from record 700.2,  wavefunction type=CCSD

 torquex=0.0000D+00  torquey=0.0000D+00  torquez=0.0000D+00 total=    0.0000

 Entering opt_bmat, project=F  hessinp=F  newcoord=T  MAXIT=100  maxitq=40

 Number of contracted internal coordinates:   3
 Smallest nonzero eigenvalue of G:  0.121D+01
 No hessian update for point  1
 Optimization method: RF
 bmat iter=  1  nc=   3  grad=     0.10012264  step=     0.02900643  stepmax=     0.30000000  scale=     1.00000000  de=-0.000914815151
 it=  1  dnq=  0.290D-01  dnx=  0.126D-01
 it=  2  dnq=  0.257D-03  dnx=  0.193D-03
 it=  3  dnq=  0.211D-05  dnx=  0.165D-05
 it=  4  dnq=  0.446D-07  dnx=  0.256D-07
 it=  5  dnq=  0.495D-09  dnx=  0.440D-09
 back transformation to cartesian coordinates converged in  5 iterations
 Bmat iter=  1  dq=   0.02900643  dx=   0.01252693  rms=   0.00417564  de=  -0.0002098323  enext= -76.3507381805

 Optimization point 1

 Variable                      Last           Current        Next           Gradient       Hessian

 E(CCSD) / Hartree           0.00000000   -76.35052835   -76.35073818
 GX1 / ANGSTROM              0.00000000     0.00000000     0.00000000     0.00000000     3.57106483
 GY1 / ANGSTROM              0.00000000     0.74936820     0.75092449     0.00817130     3.57106483
 GZ1 / ANGSTROM              0.00000000     0.53976356     0.53472901     0.01477641     3.57106483
 GX2 / ANGSTROM              0.00000000     0.00000000     0.00000000     0.00000000     3.57106483
 GY2 / ANGSTROM              0.00000000     0.00000000     0.00000000     0.00000000     3.57106483
 GZ2 / ANGSTROM              0.00000000    -0.06802004    -0.05795095    -0.02955281     3.57106483
 GX3 / ANGSTROM              0.00000000     0.00000000     0.00000000     0.00000000     3.57106483
 GY3 / ANGSTROM              0.00000000    -0.74936820    -0.75092449    -0.00817130     3.57106483
 GZ3 / ANGSTROM              0.00000000     0.53976356     0.53472901     0.01477641     3.57106483
 Convergence:                0.00000000  (line search)     0.02367247     0.02010590  (total)

 Geometry written to block  2 of record 700


 Recomputing integrals since geometry changed


 PROGRAM * SEWARD (Integral evaluation for generally contracted gaussian basis sets)     Author: Roland Lindh, 1990

 Geometry written to block  2 of record 700


 Point group  C2v



 ATOMIC COORDINATES

 NR  ATOM    CHARGE       X              Y              Z

   1  H       1.00    0.000000000    1.419041634    1.010491388
   2  H       1.00    0.000000000   -1.419041634    1.010491388
   3  O       8.00    0.000000000    0.000000000   -0.109511423

 Bond lengths in Bohr (Angstrom)

 1-3  1.807784682  2-3  1.807784682
     ( 0.956638456)     ( 0.956638456)

 Bond angles

  1-3-2  103.43426169

 NUCLEAR CHARGE:                   10
 NUMBER OF PRIMITIVE AOS:         157
 NUMBER OF SYMMETRY AOS:          132
 NUMBER OF CONTRACTIONS:          115   (   42A1  +   23B1  +   33B2  +   17A2  )
 NUMBER OF INNER CORE ORBITALS:     0   (    0A1  +    0B1  +    0B2  +    0A2  )
 NUMBER OF OUTER CORE ORBITALS:     1   (    1A1  +    0B1  +    0B2  +    0A2  )
 NUMBER OF VALENCE ORBITALS:        6   (    3A1  +    1B1  +    2B2  +    0A2  )


 NUCLEAR REPULSION ENERGY    9.20296204

 Eigenvalues of metric

         1 0.242E-03 0.591E-03 0.164E-02 0.496E-02 0.787E-02 0.985E-02 0.140E-01 0.454E-01
         2 0.814E-02 0.125E-01 0.525E-01 0.120E+00 0.156E+00 0.169E+00 0.268E+00 0.398E+00
         3 0.457E-03 0.295E-02 0.639E-02 0.799E-02 0.125E-01 0.212E-01 0.414E-01 0.605E-01
         4 0.136E-01 0.723E-01 0.131E+00 0.248E+00 0.268E+00 0.439E+00 0.464E+00 0.577E+00


 Contracted 2-electron integrals neglected if value below      1.0D-14
 AO integral compression algorithm  1   Integral accuracy      1.0D-14

     59.769 MB (compressed) written to integral file ( 97.6%)

     Node minimum: 9.437 MB, node maximum: 10.748 MB


 NUMBER OF SORTED TWO-ELECTRON INTEGRALS:     968194.     BUFFER LENGTH:  32768
 NUMBER OF SEGMENTS:   1  SEGMENT LENGTH:     968194      RECORD LENGTH: 524288

 Memory used in sort:       1.53 MW

 SORT1 READ     7707781. AND WROTE      899043. INTEGRALS IN      3 RECORDS. CPU TIME:     0.92 SEC, REAL TIME:     1.83 SEC
 SORT2 READ     5356489. AND WROTE     5772183. INTEGRALS IN    234 RECORDS. CPU TIME:     0.03 SEC, REAL TIME:     0.09 SEC

 Node minimum:      955553.  Node maximum:      968194. integrals

 OPERATOR DM      FOR CENTER  0  COORDINATES:    0.000000    0.000000    0.000000

 Program * Restricted Hartree-Fock

 Molecular orbitals read from record     2100.2  Type=RHF/CANONICAL

 NELEC=   10   SYM=1   MS2= 0   THRE=1.0D-09   THRD=1.0D-06   THRG=1.0D-06  HFMA2=F  DIIS_START=2   DIIS_MAX=10   DIIS_INCORE=F

 Level shifts:    0.00 (CLOSED)    0.00 (OPEN)    0.30 (GAP_MIN)

 ITER           ETOT              DE          GRAD        DDIFF     DIIS  NEXP   TIME(IT)  TIME(TOT)  DIAG
   1      -76.06469766     -76.06469766     0.00D+00     0.10D+00     0     0       0.08      0.14    start
   2      -76.06477080      -0.00007314     0.82D-03     0.14D-02     1     0       0.03      0.17    diag
   3      -76.06477789      -0.00000709     0.24D-03     0.24D-03     2     0       0.06      0.23    diag
   4      -76.06477974      -0.00000185     0.11D-03     0.79D-04     3     0       0.05      0.28    diag
   5      -76.06477991      -0.00000017     0.21D-04     0.29D-04     4     0       0.06      0.34    diag
   6      -76.06477993      -0.00000001     0.49D-05     0.73D-05     5     0       0.05      0.39    diag
   7      -76.06477993      -0.00000000     0.12D-05     0.18D-05     6     0       0.08      0.47    diag
   8      -76.06477993      -0.00000000     0.17D-06     0.42D-06     7     0       0.05      0.52    fixocc
   9      -76.06477993      -0.00000000     0.26D-07     0.37D-07     0     0       0.03      0.55    diag

 Final occupancy:   3   1   1   0

 !RHF STATE 1.1 Energy                -76.064779926572
  RHF One-electron energy            -123.103212067801
  RHF Two-electron energy              37.835470103791
  RHF Kinetic energy                   76.010765161622
  RHF Nuclear energy                    9.202962037438
  RHF Virial quotient                  -1.000710619934

 !RHF STATE 1.1 Dipole moment           0.00000000     0.00000000     0.79633086
 Dipole moment /Debye                   0.00000000     0.00000000     2.02407115

 Orbital energies:

           1.1          2.1          3.1          4.1          5.1
    -20.560184    -1.350620    -0.584203     0.116930     0.462269

           1.2          2.2          3.2
     -0.508529     0.583506     0.714989

           1.3          2.3          3.3
     -0.712600     0.171310     0.448413

           1.4          2.4
      0.658254     1.483738


 HOMO      1.2    -0.508529 =     -13.8378eV
 LUMO      4.1     0.116930 =       3.1818eV
 LUMO-HOMO         0.625459 =      17.0196eV

 Orbitals saved in record  2100.2


 **********************************************************************************************************************************
 DATASETS  * FILE   NREC   LENGTH (MB)   RECORD NAMES
              1      18       28.76       500      610      700      900      950      970     1000      129      960     1100
                                          VAR    BASINP    GEOM    SYMINP    ZMAT    AOBASIS   BASIS     P2S    ABASIS      S
                                         1400     1410     1200     1210     1080     1600     1650     1700
                                           T        V       H0       H01     AOSYM     SMH    MOLCAS    OPER

              2       6        0.71       700     1000      520     2100     8500     9001
                                         GEOM     BASIS   MCVARS     RHF     CPHF    DEN_MP2

              3       2        0.06      1000     8000
                                         BASIS

 PROGRAMS   *        TOTAL    HF-SCF      CCSD    HF-SCF       INT
 CPU TIMES  *       137.82      3.81     93.00      0.67      3.05
 REAL TIME  *       151.08 SEC
 DISK USED  *        38.03 MB (local),      343.01 MB (total)
 SF USED    *        27.95 MB
 GA USED    *         0.00 MB       (max)       0.00 MB       (current)
 **********************************************************************************************************************************


 PROGRAM * CCSD (Closed-shell coupled cluster)     Authors: C. Hampel, H.-J. Werner, 1991, M. Deegan, P.J. Knowles, 1992


 Convergence thresholds:  THRVAR = 1.00D-12  THRDEN = 1.00D-08

 Using ITF CCSD gradient implementation

 Number of core orbitals:           1 (   1   0   0   0 )
 Number of closed-shell orbitals:   4 (   2   1   1   0 )
 Number of external orbitals:     110 (  39  22  32  17 )

 Molecular orbitals read from record     2100.2  Type=RHF/CANONICAL (state 1.1)

 Integral transformation finished. Total CPU:  25.50 sec, npass=  1  Memory used:   0.39 MW
  Reference energy                    -76.064779926572

  MP2 correlation energy               -0.282847677577
  MP2 total energy                    -76.347627604149

 ITER.      SQ.NORM     CORR.ENERGY   TOTAL ENERGY   ENERGY CHANGE        DEN1      VAR(S)    VAR(P)  DIIS     TIME
   1      1.06229828    -0.28567236   -76.35045229    -0.00282468     0.00256312  6.03e-04  8.91e-04  1  1     2.18
   2      1.06551853    -0.28591850   -76.35069843    -0.00024614    -0.00475753  3.22e-05  9.82e-05  2  2     4.58
   3      1.06631513    -0.28600495   -76.35078488    -0.00008646    -0.00042270  1.39e-06  1.51e-05  3  3     6.72
   4      1.06677617    -0.28601719   -76.35079712    -0.00001224    -0.00041634  5.97e-08  1.60e-06  4  4     9.21
   5      1.06691497    -0.28600997   -76.35078989     0.00000723    -0.00010061  4.87e-09  1.31e-07  5  5    11.41
   6      1.06694984    -0.28600851   -76.35078843     0.00000146    -0.00002389  6.96e-11  3.89e-09  6  0    13.23
   7      1.06695321    -0.28600803   -76.35078795     0.00000048    -0.00000231  2.42e-11  1.67e-10  6  1    16.13
   8      1.06695317    -0.28600799   -76.35078792     0.00000003    -0.00000006  1.33e-13  9.37e-12  6  2    18.17
   9      1.06695313    -0.28600800   -76.35078792    -0.00000000     0.00000001  2.22e-14  7.45e-13          20.97
 WARNING: Named clock 3265 does not exist. Cannot pop it.

 Norm of t1 vector:      0.02947114     S-energy:     -0.00000000   T1 diagnostic:  0.00736779

 Time per iteration:                      2.33 sec

 RESULTS
 =======

  Reference energy                    -76.064779926572
  CCSD correlation energy              -0.286007996427
 !CCSD total energy                   -76.350787922999

 Starting CP-CCSD iterations.   Author: W. Gyorffy (2012)

 ITER.      NRM1           NRM2      VAR(S)+VAR(P)   DIIS    TIME
   1     0.00054562     0.20577390     1.52e-04      1  1    3.32
   2     0.00049410     0.20457656     7.82e-06      2  2    5.96
   3     0.00046973     0.20443742     8.77e-07      3  3    8.78
   4     0.00045777     0.20436039     8.26e-08      4  4   12.39
   5     0.00045348     0.20435738     7.01e-09      5  5   14.86
   6     0.00045239     0.20435862     9.66e-10      6  0   17.77
   7     0.00045206     0.20436030     1.16e-10      6  1   21.33
   8     0.00045198     0.20436039     1.42e-11      6  2   24.56
   9     0.00045196     0.20436023     1.25e-12      6  3   27.45
  10     0.00045195     0.20436013     4.94e-14             30.59

 WARNING: Named clock 3265 does not exist. Cannot pop it.

 Time per iteration:                      3.06 sec


 CPHF trial vector read from record  8500.2

 Starting Coupled-perturbed Hartree-Fock, convergence threshold= 1.0D-06

 ITER   MIC  DIIS      VAR         VARC       CPU
   1     0     1    0.16D-02    0.33D-03     0.00
   2     3     2    0.10D-04    0.51D-05     0.01
   3     2     3    0.50D-06    0.67D-07     0.01

 CPHF convergence reached in  3 macroiterations and    5 microiterations.   Accuracy: 4.9725D-07

 CPHF solution written to record  8500.2

 Dipole moments (unrelaxed):            0.00000000     0.00000000     0.75307143
 Orbital relaxation contribution:      -0.00000000    -0.00000000     0.00323855
 !CCSD STATE 1.1 Dipole moment          0.00000000     0.00000000     0.75630998
 Dipole moment /Debye                   0.00000000     0.00000000     1.92234823

 CPU-time for coupled-perturbed hartree-fock:          0.14 sec

 Number of N-1 electron functions:               4
 Number of N-2 electron functions:              10
 Number of singly external CSFs:               132
 Number of doubly external CSFs:             25004
 Total number of CSFs:                       25137

 CCSD gradient info saved on record        55555.1




 **********************************************************************************************************************************
 DATASETS  * FILE   NREC   LENGTH (MB)   RECORD NAMES
              1      20       37.26       500      610      700      900      950      970     1000      129      960     1100
                                          VAR    BASINP    GEOM    SYMINP    ZMAT    AOBASIS   BASIS     P2S    ABASIS      S
                                         1400     1410     1200     1210     1080     1600     1650     1700     1380    55555
                                           T        V       H0       H01     AOSYM     SMH    MOLCAS    OPER     JKOP     CCSD

              2       6        0.71       700     1000      520     2100     8500     9001
                                         GEOM     BASIS   MCVARS     RHF     CPHF    DEN_MP2

              3       2        0.06      1000     8000
                                         BASIS

 PROGRAMS   *        TOTAL      CCSD      CCSD    HF-SCF       INT
 CPU TIMES  *       226.33     88.49     93.00      0.67      3.05
 REAL TIME  *       230.22 SEC
 DISK USED  *        38.03 MB (local),      343.06 MB (total)
 SF USED    *        27.95 MB
 GA USED    *         0.00 MB       (max)       0.00 MB       (current)
 **********************************************************************************************************************************

 ITER.   ENERGY(OLD)    ENERGY(NEW)      DE          GRADMAX     GRADNORM    GRADRMS     STEPMAX     STEPLEN     STEPRMS   CPU-time
   1   -76.35052835   -76.35078792    -0.00025957  0.01563868  0.02010590  0.00670197  0.01902782  0.02367247  0.01366731    128.99

 Current geometry (xyz format, in Angstrom)


 **********************************************************************************************************************************

 PROGRAM * ALASKA (Gradient of the energy)     Author: R. Lindh


 CCSD Gradient info restored from record   55555.1

 Number of core orbitals:           1 (   1   0   0   0 )
 Number of closed-shell orbitals:   4 (   2   1   1   0 )
 Number of external orbitals:     110 (  39  22  32  17 )

 Integral thresholds in T2TRAN:            1.0D-10 (PROD)

 Available memory for Transformation: 196747809 words
 Memory needed for incore algorithm:     525131 words
 Minimum memory needed:                  320069 words

 Memory used for transformation:           0.79 MW
 Available memory for gradients:         197.96 MW

 CPU for transformation:                   0.52 sec
 CPU for integrals and gradient:          10.23 sec
 Total CPU:                               10.90 sec

 Prescreening statistics:
 ========================

 Total number of shell quadruplets:        1.76D+02
 Number of shell quadruplets processed:    1.76D+02 (100.00%)

 CCSD GRADIENT FOR STATE 1.1

 Atom          dE/dx               dE/dy               dE/dz

   1         0.000000000        -0.000208136         0.001689252
   2         0.000000000         0.000208136         0.001689252
   3         0.000000000         0.000000000        -0.003378504

 Nuclear force contribution to virial =         0.003193226

 Entering BMAT geometry-optimization, modelhes=F
 Reading points 1 to 2 from record 700.2,  wavefunction type=CCSD

 torquex=0.0000D+00  torquey=0.0000D+00  torquez=0.0000D+00 total=    0.0000

 Entering opt_bmat, project=F  hessinp=F  newcoord=F  MAXIT=100  maxitq=40
 Smallest nonzero eigenvalue of G:  0.120D+01
 BFGS update of hessian using  1 points
 bmat iter=  2  nc=   3  grad=     0.01540732  step=     0.01616764  stepmax=     0.30000000  scale=     1.00000000  de=-0.000102730236
 it=  1  dnq=  0.162D-01  dnx=  0.760D-02
 it=  2  dnq=  0.500D-04  dnx=  0.452D-04
 it=  3  dnq=  0.498D-06  dnx=  0.217D-06
 it=  4  dnq=  0.348D-08  dnx=  0.302D-08
 back transformation to cartesian coordinates converged in  4 iterations
 Bmat iter=  2  dq=   0.01616764  dx=   0.00757808  rms=   0.00252603  de=  -0.0000235634  enext= -76.3508114864

 Optimization point 2

 Variable                      Last           Current        Next           Gradient       Hessian

 E(CCSD) / Hartree         -76.35052835   -76.35078792   -76.35081149
 GX1 / ANGSTROM              0.00000000     0.00000000     0.00000000     0.00000000     3.57106483
 GY1 / ANGSTROM              0.74936820     0.75092449     0.75447622    -0.00039332     3.57106483
 GZ1 / ANGSTROM              0.53976356     0.53472901     0.53241249     0.00319222     3.57106483
 GX2 / ANGSTROM              0.00000000     0.00000000     0.00000000     0.00000000     3.57106483
 GY2 / ANGSTROM              0.00000000     0.00000000    -0.00000000     0.00000000     3.57106483
 GZ2 / ANGSTROM             -0.06802004    -0.05795095    -0.05331790    -0.00638445     3.57106483
 GX3 / ANGSTROM              0.00000000     0.00000000     0.00000000     0.00000000     3.57106483
 GY3 / ANGSTROM             -0.74936820    -0.75092449    -0.75447622     0.00039332     3.57106483
 GZ3 / ANGSTROM              0.53976356     0.53472901     0.53241249     0.00319222     3.57106483
 Convergence:                0.00000000  (line search)     0.01432049     0.00414826  (total)

 Geometry written to block  3 of record 700


 Recomputing integrals since geometry changed


 PROGRAM * SEWARD (Integral evaluation for generally contracted gaussian basis sets)     Author: Roland Lindh, 1990

 Geometry written to block  3 of record 700


 Point group  C2v



 ATOMIC COORDINATES

 NR  ATOM    CHARGE       X              Y              Z

   1  H       1.00    0.000000000    1.425753422    1.006113789
   2  H       1.00    0.000000000   -1.425753422    1.006113789
   3  O       8.00    0.000000000    0.000000000   -0.100756224

 Bond lengths in Bohr (Angstrom)

 1-3  1.804974805  2-3  1.804974805
     ( 0.955151533)     ( 0.955151533)

 Bond angles

  1-3-2  104.35273049

 NUCLEAR CHARGE:                   10
 NUMBER OF PRIMITIVE AOS:         157
 NUMBER OF SYMMETRY AOS:          132
 NUMBER OF CONTRACTIONS:          115   (   42A1  +   23B1  +   33B2  +   17A2  )
 NUMBER OF INNER CORE ORBITALS:     0   (    0A1  +    0B1  +    0B2  +    0A2  )
 NUMBER OF OUTER CORE ORBITALS:     1   (    1A1  +    0B1  +    0B2  +    0A2  )
 NUMBER OF VALENCE ORBITALS:        6   (    3A1  +    1B1  +    2B2  +    0A2  )


 NUCLEAR REPULSION ENERGY    9.21508143

 Eigenvalues of metric

         1 0.241E-03 0.589E-03 0.163E-02 0.492E-02 0.780E-02 0.985E-02 0.139E-01 0.452E-01
         2 0.806E-02 0.124E-01 0.522E-01 0.120E+00 0.156E+00 0.169E+00 0.266E+00 0.397E+00
         3 0.455E-03 0.294E-02 0.634E-02 0.795E-02 0.123E-01 0.212E-01 0.415E-01 0.607E-01
         4 0.135E-01 0.721E-01 0.130E+00 0.247E+00 0.269E+00 0.437E+00 0.462E+00 0.576E+00


 Contracted 2-electron integrals neglected if value below      1.0D-14
 AO integral compression algorithm  1   Integral accuracy      1.0D-14

     59.769 MB (compressed) written to integral file ( 97.6%)

     Node minimum: 8.913 MB, node maximum: 11.534 MB


 NUMBER OF SORTED TWO-ELECTRON INTEGRALS:     968194.     BUFFER LENGTH:  32768
 NUMBER OF SEGMENTS:   1  SEGMENT LENGTH:     968194      RECORD LENGTH: 524288

 Memory used in sort:       1.53 MW

 SORT1 READ     7707781. AND WROTE      899043. INTEGRALS IN      3 RECORDS. CPU TIME:     0.14 SEC, REAL TIME:     0.15 SEC
 SORT2 READ     5356489. AND WROTE     5772183. INTEGRALS IN    240 RECORDS. CPU TIME:     0.06 SEC, REAL TIME:     0.06 SEC

 Node minimum:      955553.  Node maximum:      968194. integrals

 OPERATOR DM      FOR CENTER  0  COORDINATES:    0.000000    0.000000    0.000000

 Program * Restricted Hartree-Fock

 Molecular orbitals read from record     2100.2  Type=RHF/CANONICAL (state 1.1)

 NELEC=   10   SYM=1   MS2= 0   THRE=1.0D-09   THRD=1.0D-06   THRG=1.0D-06  HFMA2=F  DIIS_START=2   DIIS_MAX=10   DIIS_INCORE=F

 Level shifts:    0.00 (CLOSED)    0.00 (OPEN)    0.30 (GAP_MIN)

 ITER           ETOT              DE          GRAD        DDIFF     DIIS  NEXP   TIME(IT)  TIME(TOT)  DIAG
   1      -76.06494887     -76.06494887     0.00D+00     0.10D+00     0     0       0.06      0.10    start
   2      -76.06496000      -0.00001113     0.31D-03     0.49D-03     1     0       0.03      0.13    diag
   3      -76.06496082      -0.00000082     0.71D-04     0.83D-04     2     0       0.02      0.15    diag
   4      -76.06496099      -0.00000017     0.35D-04     0.25D-04     3     0       0.02      0.17    diag
   5      -76.06496101      -0.00000002     0.71D-05     0.12D-04     4     0       0.02      0.19    diag
   6      -76.06496101      -0.00000000     0.13D-05     0.22D-05     5     0       0.03      0.22    diag
   7      -76.06496101      -0.00000000     0.26D-06     0.40D-06     6     0       0.02      0.24    diag
   8      -76.06496101      -0.00000000     0.57D-07     0.12D-06     0     0       0.02      0.26    fixocc

 Final occupancy:   3   1   1   0

 !RHF STATE 1.1 Energy                -76.064961006572
  RHF One-electron energy            -123.127173586173
  RHF Two-electron energy              37.847131144818
  RHF Kinetic energy                   76.015070937655
  RHF Nuclear energy                    9.215081434783
  RHF Virial quotient                  -1.000656318126

 !RHF STATE 1.1 Dipole moment           0.00000000     0.00000000     0.79002551
 Dipole moment /Debye                   0.00000000     0.00000000     2.00804457

 Orbital energies:

           1.1          2.1          3.1          4.1          5.1
    -20.559499    -1.350709    -0.582672     0.117217     0.461949

           1.2          2.2          3.2
     -0.508368     0.583573     0.717900

           1.3          2.3          3.3
     -0.715208     0.171180     0.449845

           1.4          2.4
      0.657015     1.484707


 HOMO      1.2    -0.508368 =     -13.8334eV
 LUMO      4.1     0.117217 =       3.1896eV
 LUMO-HOMO         0.625585 =      17.0230eV

 Orbitals saved in record  2100.2


 **********************************************************************************************************************************
 DATASETS  * FILE   NREC   LENGTH (MB)   RECORD NAMES
              1      18       28.76       500      610      700      900      950      970     1000      129      960     1100
                                          VAR    BASINP    GEOM    SYMINP    ZMAT    AOBASIS   BASIS     P2S    ABASIS      S
                                         1400     1410     1200     1210     1080     1600     1650     1700
                                           T        V       H0       H01     AOSYM     SMH    MOLCAS    OPER

              2       6        0.71       700     1000      520     2100     8500     9001
                                         GEOM     BASIS   MCVARS     RHF     CPHF    DEN_MP2

              3       2        0.06      1000     8000
                                         BASIS

 PROGRAMS   *        TOTAL    HF-SCF      CCSD    HF-SCF       INT
 CPU TIMES  *       242.86      1.78     93.00      0.67      3.05
 REAL TIME  *       239.14 SEC
 DISK USED  *        38.03 MB (local),      343.07 MB (total)
 SF USED    *        27.95 MB
 GA USED    *         0.00 MB       (max)       0.00 MB       (current)
 **********************************************************************************************************************************


 PROGRAM * CCSD (Closed-shell coupled cluster)     Authors: C. Hampel, H.-J. Werner, 1991, M. Deegan, P.J. Knowles, 1992


 Convergence thresholds:  THRVAR = 1.00D-12  THRDEN = 1.00D-08

 Using ITF CCSD gradient implementation

 Number of core orbitals:           1 (   1   0   0   0 )
 Number of closed-shell orbitals:   4 (   2   1   1   0 )
 Number of external orbitals:     110 (  39  22  32  17 )

 Molecular orbitals read from record     2100.2  Type=RHF/CANONICAL (state 1.1)

 Integral transformation finished. Total CPU:   2.06 sec, npass=  1  Memory used:   0.39 MW
  Reference energy                    -76.064961006572

  MP2 correlation energy               -0.282664927336
  MP2 total energy                    -76.347625933908

 ITER.      SQ.NORM     CORR.ENERGY   TOTAL ENERGY   ENERGY CHANGE        DEN1      VAR(S)    VAR(P)  DIIS     TIME
   1      1.06217569    -0.28551618   -76.35047719    -0.00285125     0.00251116  5.97e-04  8.85e-04  1  1     1.08
   2      1.06537512    -0.28576272   -76.35072373    -0.00024654    -0.00473576  3.18e-05  9.72e-05  2  2     2.12
   3      1.06616634    -0.28584832   -76.35080932    -0.00008559    -0.00042254  1.38e-06  1.49e-05  3  3     3.24
   4      1.06662253    -0.28586033   -76.35082134    -0.00001202    -0.00041357  5.83e-08  1.57e-06  4  4     4.25
   5      1.06675943    -0.28585317   -76.35081417     0.00000717    -0.00009963  4.80e-09  1.29e-07  5  5     5.29
   6      1.06679375    -0.28585173   -76.35081273     0.00000144    -0.00002362  6.89e-11  3.82e-09  6  0     6.62
   7      1.06679708    -0.28585125   -76.35081226     0.00000047    -0.00000229  2.35e-11  1.62e-10  6  1     7.55
   8      1.06679703    -0.28585122   -76.35081223     0.00000003    -0.00000006  1.30e-13  9.04e-12  6  2     8.48
   9      1.06679700    -0.28585122   -76.35081223    -0.00000000     0.00000001  2.13e-14  7.17e-13           9.70
 WARNING: Named clock 3265 does not exist. Cannot pop it.

 Norm of t1 vector:      0.02931732     S-energy:     -0.00000000   T1 diagnostic:  0.00732933

 Time per iteration:                      1.08 sec

 RESULTS
 =======

  Reference energy                    -76.064961006572
  CCSD correlation energy              -0.285851223465
 !CCSD total energy                   -76.350812230037

 Starting CP-CCSD iterations.   Author: W. Gyorffy (2012)

 ITER.      NRM1           NRM2      VAR(S)+VAR(P)   DIIS    TIME
   1     0.00053940     0.20548464     1.51e-04      1  1    1.27
   2     0.00048841     0.20429316     7.75e-06      2  2    2.82
   3     0.00046435     0.20415453     8.67e-07      3  3    4.19
   4     0.00045255     0.20407805     8.12e-08      4  4    5.46
   5     0.00044832     0.20407504     6.86e-09      5  5    6.72
   6     0.00044725     0.20407628     9.45e-10      6  0    8.14
   7     0.00044693     0.20407796     1.13e-10      6  1    9.45
   8     0.00044685     0.20407805     1.41e-11      6  2   10.81
   9     0.00044683     0.20407789     1.25e-12      6  3   12.07
  10     0.00044683     0.20407779     4.94e-14             13.47

 WARNING: Named clock 3265 does not exist. Cannot pop it.

 Time per iteration:                      1.35 sec


 CPHF trial vector read from record  8500.2

 Starting Coupled-perturbed Hartree-Fock, convergence threshold= 1.0D-06

 ITER   MIC  DIIS      VAR         VARC       CPU
   1     0     1    0.77D-03    0.13D-03     0.01
   2     3     2    0.35D-05    0.21D-05     0.01
   3     1     3    0.25D-06    0.28D-07     0.02

 CPHF convergence reached in  3 macroiterations and    4 microiterations.   Accuracy: 2.4510D-07

 CPHF solution written to record  8500.2

 Dipole moments (unrelaxed):            0.00000000     0.00000000     0.74761583
 Orbital relaxation contribution:      -0.00000000    -0.00000000     0.00316923
 !CCSD STATE 1.1 Dipole moment          0.00000000     0.00000000     0.75078506
 Dipole moment /Debye                   0.00000000     0.00000000     1.90830528

 CPU-time for coupled-perturbed hartree-fock:          0.13 sec

 Number of N-1 electron functions:               4
 Number of N-2 electron functions:              10
 Number of singly external CSFs:               132
 Number of doubly external CSFs:             25004
 Total number of CSFs:                       25137

 CCSD gradient info saved on record        55555.1




 **********************************************************************************************************************************
 DATASETS  * FILE   NREC   LENGTH (MB)   RECORD NAMES
              1      20       37.26       500      610      700      900      950      970     1000      129      960     1100
                                          VAR    BASINP    GEOM    SYMINP    ZMAT    AOBASIS   BASIS     P2S    ABASIS      S
                                         1400     1410     1200     1210     1080     1600     1650     1700     1380    55555
                                           T        V       H0       H01     AOSYM     SMH    MOLCAS    OPER     JKOP     CCSD

              2       6        0.71       700     1000      520     2100     8500     9001
                                         GEOM     BASIS   MCVARS     RHF     CPHF    DEN_MP2

              3       2        0.06      1000     8000
                                         BASIS

 PROGRAMS   *        TOTAL      CCSD      CCSD    HF-SCF       INT
 CPU TIMES  *       278.15     35.28     93.00      0.67      3.05
 REAL TIME  *       257.97 SEC
 DISK USED  *        38.03 MB (local),      343.07 MB (total)
 SF USED    *        27.99 MB
 GA USED    *         0.00 MB       (max)       0.00 MB       (current)
 **********************************************************************************************************************************
   2   -76.35078792   -76.35081223    -0.00002431  0.00337850  0.00414826  0.00138275  0.00875520  0.01432049  0.00826794    180.81

 Current geometry (xyz format, in Angstrom)


 **********************************************************************************************************************************

 PROGRAM * ALASKA (Gradient of the energy)     Author: R. Lindh


 CCSD Gradient info restored from record   55555.1

 Number of core orbitals:           1 (   1   0   0   0 )
 Number of closed-shell orbitals:   4 (   2   1   1   0 )
 Number of external orbitals:     110 (  39  22  32  17 )

 Integral thresholds in T2TRAN:            1.0D-10 (PROD)

 Available memory for Transformation: 196747809 words
 Memory needed for incore algorithm:     525131 words
 Minimum memory needed:                  320069 words

 Memory used for transformation:           0.79 MW
 Available memory for gradients:         197.96 MW

 CPU for transformation:                   0.38 sec
 CPU for integrals and gradient:          11.35 sec
 Total CPU:                               11.73 sec

 Prescreening statistics:
 ========================

 Total number of shell quadruplets:        1.89D+02
 Number of shell quadruplets processed:    1.89D+02 (100.00%)

 CCSD GRADIENT FOR STATE 1.1

 Atom          dE/dx               dE/dy               dE/dz

   1         0.000000000        -0.000167921        -0.000025566
   2         0.000000000         0.000167921        -0.000025566
   3         0.000000000         0.000000000         0.000051131

 Nuclear force contribution to virial =        -0.000535424

 Entering BMAT geometry-optimization, modelhes=F
 Reading points 1 to 3 from record 700.2,  wavefunction type=CCSD

 torquex=-.1355D-19  torquey=0.0000D+00  torquez=0.0000D+00 total=    0.0000

 Entering opt_bmat, project=F  hessinp=F  newcoord=F  MAXIT=100  maxitq=40
 Smallest nonzero eigenvalue of G:  0.120D+01
 BFGS update of hessian using  2 points
 bmat iter=  3  nc=   3  grad=     0.00184681  step=     0.00082548  stepmax=     0.30000000  scale=     1.00000000  de=-0.000000403557
 it=  1  dnq=  0.825D-03  dnx=  0.501D-03
 it=  2  dnq=  0.147D-06  dnx=  0.836D-07
 it=  3  dnq=  0.607D-10  dnx=  0.442D-10
 back transformation to cartesian coordinates converged in  3 iterations
 Bmat iter=  3  dq=   0.00082548  dx=   0.00050135  rms=   0.00016712  de=  -0.0000000926  enext= -76.3508123226

 Optimization point 3

 Variable                      Last           Current        Next           Gradient       Hessian

 E(CCSD) / Hartree         -76.35078792   -76.35081223   -76.35081232
 GX1 / ANGSTROM              0.00000000     0.00000000     0.00000000     0.00000000     3.57106483
 GY1 / ANGSTROM              0.75092449     0.75447622     0.75480369    -0.00031732     3.57106483
 GZ1 / ANGSTROM              0.53472901     0.53241249     0.53233408    -0.00004831     3.57106483
 GX2 / ANGSTROM              0.00000000     0.00000000     0.00000000     0.00000000     3.57106483
 GY2 / ANGSTROM              0.00000000    -0.00000000    -0.00000000     0.00000000     3.57106483
 GZ2 / ANGSTROM             -0.05795095    -0.05331790    -0.05316109     0.00009662     3.57106483
 GX3 / ANGSTROM              0.00000000     0.00000000     0.00000000     0.00000000     3.57106483
 GY3 / ANGSTROM             -0.75092449    -0.75447622    -0.75480369     0.00031732     3.57106483
 GZ3 / ANGSTROM              0.53472901     0.53241249     0.53233408    -0.00004831     3.57106483
 Convergence:                0.00000000  (line search)     0.00094742     0.00024559  (total)

 Geometry written to block  4 of record 700


 Recomputing integrals since geometry changed


 PROGRAM * SEWARD (Integral evaluation for generally contracted gaussian basis sets)     Author: Roland Lindh, 1990

 Geometry written to block  4 of record 700


 Point group  C2v



 ATOMIC COORDINATES

 NR  ATOM    CHARGE       X              Y              Z

   1  H       1.00    0.000000000    1.426372246    1.005965623
   2  H       1.00    0.000000000   -1.426372246    1.005965623
   3  O       8.00    0.000000000    0.000000000   -0.100459891

 Bond lengths in Bohr (Angstrom)

 1-3  1.805191182  2-3  1.805191182
     ( 0.955266035)     ( 0.955266035)

 Bond angles

  1-3-2  104.39910781

 NUCLEAR CHARGE:                   10
 NUMBER OF PRIMITIVE AOS:         157
 NUMBER OF SYMMETRY AOS:          132
 NUMBER OF CONTRACTIONS:          115   (   42A1  +   23B1  +   33B2  +   17A2  )
 NUMBER OF INNER CORE ORBITALS:     0   (    0A1  +    0B1  +    0B2  +    0A2  )
 NUMBER OF OUTER CORE ORBITALS:     1   (    1A1  +    0B1  +    0B2  +    0A2  )
 NUMBER OF VALENCE ORBITALS:        6   (    3A1  +    1B1  +    2B2  +    0A2  )


 NUCLEAR REPULSION ENERGY    9.21386677

 Eigenvalues of metric

         1 0.241E-03 0.589E-03 0.163E-02 0.492E-02 0.780E-02 0.986E-02 0.139E-01 0.452E-01
         2 0.806E-02 0.125E-01 0.522E-01 0.120E+00 0.156E+00 0.169E+00 0.267E+00 0.397E+00
         3 0.455E-03 0.294E-02 0.635E-02 0.795E-02 0.123E-01 0.212E-01 0.415E-01 0.607E-01
         4 0.135E-01 0.721E-01 0.130E+00 0.247E+00 0.269E+00 0.437E+00 0.462E+00 0.576E+00


 Contracted 2-electron integrals neglected if value below      1.0D-14
 AO integral compression algorithm  1   Integral accuracy      1.0D-14

     60.293 MB (compressed) written to integral file ( 96.8%)

     Node minimum: 9.437 MB, node maximum: 11.534 MB


 NUMBER OF SORTED TWO-ELECTRON INTEGRALS:     968194.     BUFFER LENGTH:  32768
 NUMBER OF SEGMENTS:   1  SEGMENT LENGTH:     968194      RECORD LENGTH: 524288

 Memory used in sort:       1.53 MW

 SORT1 READ     7707781. AND WROTE      899043. INTEGRALS IN      3 RECORDS. CPU TIME:     0.14 SEC, REAL TIME:     0.15 SEC
 SORT2 READ     5356489. AND WROTE     5772183. INTEGRALS IN    216 RECORDS. CPU TIME:     0.02 SEC, REAL TIME:     0.04 SEC

 Node minimum:      955553.  Node maximum:      968194. integrals

 OPERATOR DM      FOR CENTER  0  COORDINATES:    0.000000    0.000000    0.000000

 Program * Restricted Hartree-Fock

 Molecular orbitals read from record     2100.2  Type=RHF/CANONICAL (state 1.1)

 NELEC=   10   SYM=1   MS2= 0   THRE=1.0D-09   THRD=1.0D-07   THRG=1.0D-07  HFMA2=F  DIIS_START=2   DIIS_MAX=10   DIIS_INCORE=F

 Level shifts:    0.00 (CLOSED)    0.00 (OPEN)    0.30 (GAP_MIN)

 ITER           ETOT              DE          GRAD        DDIFF     DIIS  NEXP   TIME(IT)  TIME(TOT)  DIAG
   1      -76.06495699     -76.06495699     0.00D+00     0.10D+00     0     0       0.04      0.10    start
   2      -76.06495701      -0.00000003     0.17D-04     0.28D-04     1     0       0.02      0.12    diag
   3      -76.06495701      -0.00000000     0.26D-05     0.32D-05     2     0       0.03      0.15    diag
   4      -76.06495701      -0.00000000     0.11D-05     0.96D-06     3     0       0.02      0.17    diag
   5      -76.06495701      -0.00000000     0.25D-06     0.38D-06     4     0       0.01      0.18    diag
   6      -76.06495701      -0.00000000     0.38D-07     0.11D-06     5     0       0.02      0.20    diag
   7      -76.06495701       0.00000000     0.80D-08     0.24D-07     6     0       0.02      0.22    diag
   8      -76.06495701      -0.00000000     0.18D-08     0.20D-08     0     0       0.01      0.23    fixocc

 Final occupancy:   3   1   1   0

 !RHF STATE 1.1 Energy                -76.064957014158
  RHF One-electron energy            -123.125149393603
  RHF Two-electron energy              37.846325605641
  RHF Kinetic energy                   76.014539404536
  RHF Nuclear energy                    9.213866773805
  RHF Virial quotient                  -1.000663262713

 !RHF STATE 1.1 Dipole moment           0.00000000     0.00000000     0.78976756
 Dipole moment /Debye                   0.00000000     0.00000000     2.00738892

 Orbital energies:

           1.1          2.1          3.1          4.1          5.1
    -20.559498    -1.350615    -0.582558     0.117216     0.461952

           1.2          2.2          3.2
     -0.508344     0.583584     0.718029

           1.3          2.3          3.3
     -0.715235     0.171163     0.449865

           1.4          2.4
      0.656930     1.484761


 HOMO      1.2    -0.508344 =     -13.8327eV
 LUMO      4.1     0.117216 =       3.1896eV
 LUMO-HOMO         0.625560 =      17.0223eV

 Orbitals saved in record  2100.2


 **********************************************************************************************************************************
 DATASETS  * FILE   NREC   LENGTH (MB)   RECORD NAMES
              1      18       28.76       500      610      700      900      950      970     1000      129      960     1100
                                          VAR    BASINP    GEOM    SYMINP    ZMAT    AOBASIS   BASIS     P2S    ABASIS      S
                                         1400     1410     1200     1210     1080     1600     1650     1700
                                           T        V       H0       H01     AOSYM     SMH    MOLCAS    OPER

              2       6        0.71       700     1000      520     2100     8500     9001
                                         GEOM     BASIS   MCVARS     RHF     CPHF    DEN_MP2

              3       2        0.06      1000     8000
                                         BASIS

 PROGRAMS   *        TOTAL    HF-SCF      CCSD    HF-SCF       INT
 CPU TIMES  *       295.84      1.60     93.00      0.67      3.05
 REAL TIME  *       267.07 SEC
 DISK USED  *        38.03 MB (local),      343.15 MB (total)
 SF USED    *        27.99 MB
 GA USED    *         0.00 MB       (max)       0.00 MB       (current)
 **********************************************************************************************************************************


 PROGRAM * CCSD (Closed-shell coupled cluster)     Authors: C. Hampel, H.-J. Werner, 1991, M. Deegan, P.J. Knowles, 1992


 Convergence thresholds:  THRVAR = 1.00D-12  THRDEN = 1.00D-08

 Using ITF CCSD gradient implementation

 Number of core orbitals:           1 (   1   0   0   0 )
 Number of closed-shell orbitals:   4 (   2   1   1   0 )
 Number of external orbitals:     110 (  39  22  32  17 )

 Molecular orbitals read from record     2100.2  Type=RHF/CANONICAL (state 1.1)

 Integral transformation finished. Total CPU:   2.34 sec, npass=  1  Memory used:   0.39 MW
  Reference energy                    -76.064957014158

  MP2 correlation energy               -0.282669390194
  MP2 total energy                    -76.347626404351

 ITER.      SQ.NORM     CORR.ENERGY   TOTAL ENERGY   ENERGY CHANGE        DEN1      VAR(S)    VAR(P)  DIIS     TIME
   1      1.06218113    -0.28552012   -76.35047713    -0.00285073     0.00251254  5.97e-04  8.85e-04  1  1     1.13
   2      1.06538136    -0.28576676   -76.35072377    -0.00024664    -0.00473649  3.18e-05  9.73e-05  2  2     2.18
   3      1.06617287    -0.28585239   -76.35080941    -0.00008564    -0.00042263  1.38e-06  1.49e-05  3  3     3.03
   4      1.06662926    -0.28586442   -76.35082144    -0.00001203    -0.00041370  5.83e-08  1.58e-06  4  4     4.06
   5      1.06676625    -0.28585725   -76.35081427     0.00000717    -0.00009968  4.80e-09  1.29e-07  5  5     5.22
   6      1.06680059    -0.28585581   -76.35081283     0.00000144    -0.00002363  6.90e-11  3.82e-09  6  0     6.24
   7      1.06680393    -0.28585534   -76.35081236     0.00000047    -0.00000229  2.35e-11  1.63e-10  6  1     7.20
   8      1.06680388    -0.28585531   -76.35081232     0.00000003    -0.00000006  1.31e-13  9.06e-12  6  2     8.26
   9      1.06680385    -0.28585531   -76.35081232    -0.00000000     0.00000001  2.13e-14  7.18e-13           9.27
 WARNING: Named clock 3265 does not exist. Cannot pop it.

 Norm of t1 vector:      0.02931968     S-energy:     -0.00000000   T1 diagnostic:  0.00732992

 Time per iteration:                      1.03 sec

 RESULTS
 =======

  Reference energy                    -76.064957014158
  CCSD correlation energy              -0.285855310072
 !CCSD total energy                   -76.350812324230

 Starting CP-CCSD iterations.   Author: W. Gyorffy (2012)

 ITER.      NRM1           NRM2      VAR(S)+VAR(P)   DIIS    TIME
   1     0.00053949     0.20549564     1.51e-04      1  1    1.21
   2     0.00048849     0.20430394     7.75e-06      2  2    2.43
   3     0.00046443     0.20416527     8.67e-07      3  3    3.60
   4     0.00045263     0.20408877     8.12e-08      4  4    4.97
   5     0.00044840     0.20408576     6.86e-09      5  5    6.29
   6     0.00044733     0.20408700     9.46e-10      6  0    7.42
   7     0.00044701     0.20408868     1.14e-10      6  1    8.87
   8     0.00044693     0.20408877     1.41e-11      6  2   10.29
   9     0.00044691     0.20408861     1.25e-12      6  3   11.62
  10     0.00044690     0.20408851     4.95e-14             12.89

 WARNING: Named clock 3265 does not exist. Cannot pop it.

 Time per iteration:                      1.29 sec


 CPHF trial vector read from record  8500.2

 Starting Coupled-perturbed Hartree-Fock, convergence threshold= 1.0D-06

 ITER   MIC  DIIS      VAR         VARC       CPU
   1     0     1    0.39D-04    0.32D-05     0.01
   2     2     2    0.33D-06    0.61D-07     0.01

 CPHF convergence reached in  2 macroiterations and    2 microiterations.   Accuracy: 3.3465D-07

 CPHF solution written to record  8500.2

 Dipole moments (unrelaxed):            0.00000000     0.00000000     0.74737620
 Orbital relaxation contribution:      -0.00000000    -0.00000000     0.00316727
 !CCSD STATE 1.1 Dipole moment          0.00000000     0.00000000     0.75054347
 Dipole moment /Debye                   0.00000000     0.00000000     1.90769123

 CPU-time for coupled-perturbed hartree-fock:          0.13 sec

 Number of N-1 electron functions:               4
 Number of N-2 electron functions:              10
 Number of singly external CSFs:               132
 Number of doubly external CSFs:             25004
 Total number of CSFs:                       25137

 CCSD gradient info saved on record        55555.1




 **********************************************************************************************************************************
 DATASETS  * FILE   NREC   LENGTH (MB)   RECORD NAMES
              1      20       37.26       500      610      700      900      950      970     1000      129      960     1100
                                          VAR    BASINP    GEOM    SYMINP    ZMAT    AOBASIS   BASIS     P2S    ABASIS      S
                                         1400     1410     1200     1210     1080     1600     1650     1700     1380    55555
                                           T        V       H0       H01     AOSYM     SMH    MOLCAS    OPER     JKOP     CCSD

              2       6        0.71       700     1000      520     2100     8500     9001
                                         GEOM     BASIS   MCVARS     RHF     CPHF    DEN_MP2

              3       2        0.06      1000     8000
                                         BASIS

 PROGRAMS   *        TOTAL      CCSD      CCSD    HF-SCF       INT
 CPU TIMES  *       333.10     37.26     93.00      0.67      3.05
 REAL TIME  *       288.55 SEC
 DISK USED  *        38.03 MB (local),      343.15 MB (total)
 SF USED    *        28.04 MB
 GA USED    *         0.00 MB       (max)       0.00 MB       (current)
 **********************************************************************************************************************************
   3   -76.35081223   -76.35081232    -0.00000009  0.00016792  0.00024559  0.00008186  0.00061882  0.00094742  0.00054699    235.76

 Current geometry (xyz format, in Angstrom)


 **********************************************************************************************************************************

 PROGRAM * ALASKA (Gradient of the energy)     Author: R. Lindh


 CCSD Gradient info restored from record   55555.1

 Number of core orbitals:           1 (   1   0   0   0 )
 Number of closed-shell orbitals:   4 (   2   1   1   0 )
 Number of external orbitals:     110 (  39  22  32  17 )

 Integral thresholds in T2TRAN:            1.0D-10 (PROD)

 Available memory for Transformation: 196747809 words
 Memory needed for incore algorithm:     525131 words
 Minimum memory needed:                  320069 words

 Memory used for transformation:           0.79 MW
 Available memory for gradients:         197.96 MW

 CPU for transformation:                   2.52 sec
 CPU for integrals and gradient:          12.90 sec
 Total CPU:                               16.72 sec

 Prescreening statistics:
 ========================

 Total number of shell quadruplets:        1.92D+02
 Number of shell quadruplets processed:    1.92D+02 (100.00%)

 CCSD GRADIENT FOR STATE 1.1

 Atom          dE/dx               dE/dy               dE/dz

   1         0.000000000        -0.000003357        -0.000000865
   2         0.000000000         0.000003357        -0.000000865
   3         0.000000000         0.000000000         0.000001730

 Nuclear force contribution to virial =        -0.000011492

 Entering BMAT geometry-optimization, modelhes=F
 Reading points 1 to 4 from record 700.2,  wavefunction type=CCSD

 torquex=0.0000D+00  torquey=0.0000D+00  torquez=0.0000D+00 total=    0.0000

 Entering opt_bmat, project=F  hessinp=F  newcoord=F  MAXIT=100  maxitq=40
 Smallest nonzero eigenvalue of G:  0.120D+01
 BFGS update of hessian using  3 points
 bmat iter=  4  nc=   3  grad=     0.00003863  step=     0.00001367  stepmax=     0.30000000  scale=     1.00000000  de=-0.000000000141
 it=  1  dnq=  0.137D-04  dnx=  0.884D-05
 it=  2  dnq=  0.467D-10  dnx=  0.230D-10
 back transformation to cartesian coordinates converged in  2 iterations
 Bmat iter=  4  dq=   0.00001367  dx=   0.00000884  rms=   0.00000295  de=  -0.0000000000  enext= -76.3508123243

 Optimization point 4

 Variable                      Last           Current        Next           Gradient       Hessian

 E(CCSD) / Hartree         -76.35081223   -76.35081232   -76.35081232
 GX1 / ANGSTROM              0.00000000     0.00000000     0.00000000     0.00000000     3.57106483
 GY1 / ANGSTROM              0.75447622     0.75480369     0.75480963    -0.00000634     3.57106483
 GZ1 / ANGSTROM              0.53241249     0.53233408     0.53233297    -0.00000163     3.57106483
 GX2 / ANGSTROM              0.00000000     0.00000000     0.00000000     0.00000000     3.57106483
 GY2 / ANGSTROM             -0.00000000    -0.00000000    -0.00000000     0.00000000     3.57106483
 GZ2 / ANGSTROM             -0.05331790    -0.05316109    -0.05315886     0.00000327     3.57106483
 GX3 / ANGSTROM              0.00000000     0.00000000     0.00000000     0.00000000     3.57106483
 GY3 / ANGSTROM             -0.75447622    -0.75480369    -0.75480963     0.00000634     3.57106483
 GZ3 / ANGSTROM              0.53241249     0.53233408     0.53233297    -0.00000163     3.57106483
 Convergence:                0.00000000  (line search)     0.00001670     0.00000520  (total)

 Geometry written to block  5 of record 700


 Recomputing integrals since geometry changed


 PROGRAM * SEWARD (Integral evaluation for generally contracted gaussian basis sets)     Author: Roland Lindh, 1990

 Geometry written to block  5 of record 700


 Point group  C2v



 ATOMIC COORDINATES

 NR  ATOM    CHARGE       X              Y              Z

   1  H       1.00    0.000000000    1.426383476    1.005963519
   2  H       1.00    0.000000000   -1.426383476    1.005963519
   3  O       8.00    0.000000000    0.000000000   -0.100455685

 Bond lengths in Bohr (Angstrom)

 1-3  1.805196188  2-3  1.805196188
     ( 0.955268684)     ( 0.955268684)

 Bond angles

  1-3-2  104.39986124

 NUCLEAR CHARGE:                   10
 NUMBER OF PRIMITIVE AOS:         157
 NUMBER OF SYMMETRY AOS:          132
 NUMBER OF CONTRACTIONS:          115   (   42A1  +   23B1  +   33B2  +   17A2  )
 NUMBER OF INNER CORE ORBITALS:     0   (    0A1  +    0B1  +    0B2  +    0A2  )
 NUMBER OF OUTER CORE ORBITALS:     1   (    1A1  +    0B1  +    0B2  +    0A2  )
 NUMBER OF VALENCE ORBITALS:        6   (    3A1  +    1B1  +    2B2  +    0A2  )


 NUCLEAR REPULSION ENERGY    9.21383944

 Eigenvalues of metric

         1 0.241E-03 0.589E-03 0.163E-02 0.492E-02 0.780E-02 0.986E-02 0.139E-01 0.452E-01
         2 0.806E-02 0.125E-01 0.522E-01 0.120E+00 0.156E+00 0.169E+00 0.267E+00 0.397E+00
         3 0.455E-03 0.294E-02 0.635E-02 0.795E-02 0.123E-01 0.212E-01 0.415E-01 0.607E-01
         4 0.135E-01 0.721E-01 0.130E+00 0.247E+00 0.269E+00 0.437E+00 0.462E+00 0.576E+00


 Contracted 2-electron integrals neglected if value below      1.0D-14
 AO integral compression algorithm  1   Integral accuracy      1.0D-14

     59.507 MB (compressed) written to integral file ( 98.0%)

     Node minimum: 7.340 MB, node maximum: 12.321 MB


 NUMBER OF SORTED TWO-ELECTRON INTEGRALS:     968194.     BUFFER LENGTH:  32768
 NUMBER OF SEGMENTS:   1  SEGMENT LENGTH:     968194      RECORD LENGTH: 524288

 Memory used in sort:       1.53 MW

 SORT1 READ     7707781. AND WROTE      899043. INTEGRALS IN      3 RECORDS. CPU TIME:     0.21 SEC, REAL TIME:     0.21 SEC
 SORT2 READ     5356489. AND WROTE     5772183. INTEGRALS IN    282 RECORDS. CPU TIME:     0.03 SEC, REAL TIME:     0.07 SEC

 Node minimum:      955553.  Node maximum:      968194. integrals

 OPERATOR DM      FOR CENTER  0  COORDINATES:    0.000000    0.000000    0.000000

 Program * Restricted Hartree-Fock

 Molecular orbitals read from record     2100.2  Type=RHF/CANONICAL (state 1.1)

 NELEC=   10   SYM=1   MS2= 0   THRE=1.0D-09   THRD=1.0D-07   THRG=1.0D-07  HFMA2=F  DIIS_START=2   DIIS_MAX=10   DIIS_INCORE=F

 Level shifts:    0.00 (CLOSED)    0.00 (OPEN)    0.30 (GAP_MIN)

 ITER           ETOT              DE          GRAD        DDIFF     DIIS  NEXP   TIME(IT)  TIME(TOT)  DIAG
   1      -76.06495690     -76.06495690     0.00D+00     0.10D+00     0     0       0.06      0.11    start
   2      -76.06495690      -0.00000000     0.31D-06     0.52D-06     1     0       0.04      0.15    diag
   3      -76.06495690      -0.00000000     0.56D-07     0.63D-07     2     0       0.04      0.19    diag
   4      -76.06495690      -0.00000000     0.27D-07     0.29D-07     0     0       0.04      0.23    diag

 Final occupancy:   3   1   1   0

 !RHF STATE 1.1 Energy                -76.064956898192
  RHF One-electron energy            -123.125101810258
  RHF Two-electron energy              37.846305476673
  RHF Kinetic energy                   76.014526311517
  RHF Nuclear energy                    9.213839435393
  RHF Virial quotient                  -1.000663433545

 !RHF STATE 1.1 Dipole moment           0.00000000     0.00000000     0.78976352
 Dipole moment /Debye                   0.00000000     0.00000000     2.00737864

 Orbital energies:

           1.1          2.1          3.1          4.1          5.1
    -20.559497    -1.350613    -0.582556     0.117216     0.461952

           1.2          2.2          3.2
     -0.508343     0.583584     0.718031

           1.3          2.3          3.3
     -0.715235     0.171162     0.449865

           1.4          2.4
      0.656928     1.484762


 HOMO      1.2    -0.508343 =     -13.8327eV
 LUMO      4.1     0.117216 =       3.1896eV
 LUMO-HOMO         0.625559 =      17.0223eV

 Orbitals saved in record  2100.2


 **********************************************************************************************************************************
 DATASETS  * FILE   NREC   LENGTH (MB)   RECORD NAMES
              1      18       28.76       500      610      700      900      950      970     1000      129      960     1100
                                          VAR    BASINP    GEOM    SYMINP    ZMAT    AOBASIS   BASIS     P2S    ABASIS      S
                                         1400     1410     1200     1210     1080     1600     1650     1700
                                           T        V       H0       H01     AOSYM     SMH    MOLCAS    OPER

              2       6        0.71       700     1000      520     2100     8500     9001
                                         GEOM     BASIS   MCVARS     RHF     CPHF    DEN_MP2

              3       2        0.06      1000     8000
                                         BASIS

 PROGRAMS   *        TOTAL    HF-SCF      CCSD    HF-SCF       INT
 CPU TIMES  *       357.30      2.09     93.00      0.67      3.05
 REAL TIME  *       308.35 SEC
 DISK USED  *        38.03 MB (local),      343.88 MB (total)
 SF USED    *        28.04 MB
 GA USED    *         0.00 MB       (max)       0.00 MB       (current)
 **********************************************************************************************************************************


 PROGRAM * CCSD (Closed-shell coupled cluster)     Authors: C. Hampel, H.-J. Werner, 1991, M. Deegan, P.J. Knowles, 1992


 Convergence thresholds:  THRVAR = 1.00D-12  THRDEN = 1.00D-08

 Using ITF CCSD gradient implementation

 Number of core orbitals:           1 (   1   0   0   0 )
 Number of closed-shell orbitals:   4 (   2   1   1   0 )
 Number of external orbitals:     110 (  39  22  32  17 )

 Molecular orbitals read from record     2100.2  Type=RHF/CANONICAL (state 1.1)

 Integral transformation finished. Total CPU:   9.94 sec, npass=  1  Memory used:   0.39 MW
  Reference energy                    -76.064956898192

  MP2 correlation energy               -0.282669499799
  MP2 total energy                    -76.347626397991

 ITER.      SQ.NORM     CORR.ENERGY   TOTAL ENERGY   ENERGY CHANGE        DEN1      VAR(S)    VAR(P)  DIIS     TIME
   1      1.06218127    -0.28552023   -76.35047713    -0.00285073     0.00251256  5.97e-04  8.85e-04  1  1     1.94
   2      1.06538152    -0.28576687   -76.35072377    -0.00024664    -0.00473651  3.18e-05  9.73e-05  2  2     3.69
   3      1.06617304    -0.28585251   -76.35080941    -0.00008564    -0.00042263  1.38e-06  1.49e-05  3  3     6.00
