
 Working directory              : /tmp/lme/molpro.0NwIAEtg1y/
 Global scratch directory       : /tmp/lme/molpro.0NwIAEtg1y/
 Wavefunction directory         : /home/lme/wfu/
 Main file repository           : /tmp/lme/molpro.0NwIAEtg1y/

 id        : liedlgroup

 Nodes     nprocs
 sv1-c724     3
 GA implementation: MPI file
 GA implementation (serial work in mppx): MPI file

 Using customized tuning parameters: mindgm=1; mindgv=20; mindgc=4; mindgr=1; noblas=0; minvec=7
 default implementation of scratch files=sf  


 Variables initialized (1025), CPU time= 0.01 sec
 memory, 200, m                                                                  ! Memory Requirements
 gthresh, optgrad=1.d-7,twoint=1.d-14,prefac=1.d-16                            ! Guntram Rezept um numerischen Schmutz zu entfernen
 orient,mass
 geometry = {
   H,      1.2001,      0.0363,      0.8431
   C,      0.7031,      0.0083,     -0.1305
   H,      0.9877,      0.8943,     -0.7114
   H,      1.0155,     -0.8918,     -0.6742
   O,     -0.6582,     -0.0067,      0.1730
   H,     -1.1326,     -0.0311,     -0.6482
 }
 
 mass, iso
 basis=6-311g(d,p)
 
 {hf
 start,atden}
 
 optg
 {frequencies, symm=auto, print=0,analytical}
 put,molden,methanol_hf.molden
 Commands initialized (840), CPU time= 0.02 sec, 684 directives.
 Default parameters read. Elapsed time= 0.32 sec

 Checking input...
 Passed
1


                                         ***  PROGRAM SYSTEM MOLPRO  ***
                                       Copyright, TTI GmbH Stuttgart, 2015
                                    Version 2022.3 linked Wed Nov 30 12:40:34 2022


 **********************************************************************************************************************************
 LABEL *                                                                                 
  (6 PROC) 64 bit mpp version                                                            DATE: 27-Aug-25          TIME: 08:33:09  
 **********************************************************************************************************************************

 SHA1:             e31ec9a5ea85254ab76f59d122cbdd51c71cf98b
 **********************************************************************************************************************************

 Memory per process:       200 MW
 Total memory per node:    600 MW

 GA preallocation disabled
 GA check disabled

 Variable memory set to 200.0 MW


 THRESHOLDS:

 ZERO    =  1.00D-12  ONEINT  =  1.00D-12  TWOINT  =  1.00D-14  PREFAC  =  1.00D-16  XXXXXX  =  1.00D-09  EORDER  =  1.00D-04
 ENERGY  =  0.00D+00  ETEST   =  0.00D+00  EDENS   =  0.00D+00  THRDEDEF=  1.00D-06  GRADIENT=  1.00D-05  STEP    =  1.00D-03
 ORBITAL =  1.00D-05  CIVEC   =  1.00D-05  COEFF   =  1.00D-04  PRINTCI =  5.00D-02  PUNCHCI =  9.90D+01  OPTGRAD =  1.00D-07
 OPTENERG=  1.00D-06  OPTSTEP =  3.00D-04  THRGRAD =  1.00D-10  COMPRESS=  1.00D-11  VARMIN  =  1.00D-07  VARMAX  =  1.00D-03
 THRDOUB =  0.00D+00  THRDIV  =  1.00D-05  THRRED  =  1.00D-07  THRPSP  =  1.00D+00  THRDC   =  1.00D-10  THRCS   =  1.00D-10
 THRNRM  =  1.00D-08  THREQ   =  0.00D+00  THRDE   =  1.00D+00  THRREF  =  1.00D-05  SPARFAC =  1.00D+00  THRDLP  =  1.00D-07
 THRDIA  =  1.00D-10  THRDLS  =  1.00D-07  THRGPS  =  0.00D+00  THRKEX  =  0.00D+00  THRDIS  =  2.00D-01  THRVAR  =  1.00D-10
 THRLOC  =  1.00D-06  THRGAP  =  1.00D-06  THRLOCT = -1.00D+00  THRGAPT = -1.00D+00  THRORB  =  1.00D-06  THRMLTP =  0.00D+00
 THRCPQCI=  1.00D-10  KEXTA   =  0.00D+00  THRCOARS=  0.00D+00  SYMTOL  =  1.00D-06  GRADTOL =  1.00D-06  THROVL  =  1.00D-08
 THRORTH =  1.00D-08  THRDLOVL= -1.00D+00  GRID    =  1.00D-06  GRIDMAX =  1.00D-03  DTMAX   =  0.00D+00  THROCCDE=  1.00D-01
 THROCCDE=  1.00D-01  THRPRINT=  2.50D-01

 ZCENTRE=MASS


 Geometry recognized as XYZ



 Using masses of most abundant isotopes

 **********************************************************************************************************************************
 SETTING BASIS          =    6-311G(D,P)


 Recomputing integrals since basis changed


 Using spherical harmonics

 Library entry H      S 6-311G               selected for orbital group  1
 Library entry H      P 6-311G**             selected for orbital group  1
 Library entry C      S 6-311G               selected for orbital group  2
 Library entry C      P 6-311G               selected for orbital group  2
 Library entry C      D 6-311G*              selected for orbital group  2
 Library entry O      S 6-311G               selected for orbital group  4
 Library entry O      P 6-311G               selected for orbital group  4
 Library entry O      D 6-311G*              selected for orbital group  4


 PROGRAM * SEWARD (Integral evaluation for generally contracted gaussian basis sets)     Author: Roland Lindh, 1990

 Geometry written to block  1 of record 700

 Orientation using atomic masses  
 Molecule type: Asymmetric top
 Rotational constants:      24.7464623     25.6941431    127.2825897 GHz

 Point group  C1  



 ATOMIC COORDINATES

 NR  ATOM    CHARGE       X              Y              Z

   1  H       1.00    0.000239186    1.946913765    1.973978834
   2  C       6.00   -0.000000496   -0.023460726    1.351475288
   3  H       1.00    1.687995551   -0.978637244    2.083501359
   4  H       1.00   -1.688384931   -0.978085799    2.083191979
   5  O       8.00    0.000012311    0.116672798   -1.280592288
   6  H       1.00   -0.000039283   -1.562529362   -1.908533718

 Bond lengths in Bohr (Angstrom)

 1-2  2.066370334  2-3  2.073054511  2-4  2.073007561  2-5  2.635795350  5-6  1.792771691
     ( 1.093476090)     ( 1.097013204)     ( 1.096988359)     ( 1.394802832)     ( 0.948693923)

 Bond angles

  1-2-3  109.44373761   1-2-4  109.44299419   1-2-5  104.48537341   2-5-6  107.45579790

  3-2-4  109.04794568   3-2-5  112.15464891   4-2-5  112.14557272

 NUCLEAR CHARGE:                   18
 NUMBER OF PRIMITIVE AOS:          96
 NUMBER OF SYMMETRY AOS:           94
 NUMBER OF CONTRACTIONS:           60   (   60A   )
 NUMBER OF INNER CORE ORBITALS:     0   (    0A   )
 NUMBER OF OUTER CORE ORBITALS:     2   (    2A   )
 NUMBER OF VALENCE ORBITALS:       12   (   12A   )


 NUCLEAR REPULSION ENERGY   40.79052691

 Eigenvalues of metric

         1 0.855E-02 0.203E-01 0.232E-01 0.237E-01 0.387E-01 0.440E-01 0.457E-01 0.578E-01


 Contracted 2-electron integrals neglected if value below      1.0D-14
 AO integral compression algorithm  1   Integral accuracy      1.0D-14

     14.156 MB (compressed) written to integral file ( 84.5%)

     Node minimum: 3.146 MB, node maximum: 6.291 MB


 NUMBER OF SORTED TWO-ELECTRON INTEGRALS:     559065.     BUFFER LENGTH:  32768
 NUMBER OF SEGMENTS:   1  SEGMENT LENGTH:     559065      RECORD LENGTH: 524288

 Memory used in sort:       1.12 MW

 SORT1 READ     2100581. AND WROTE      550529. INTEGRALS IN      2 RECORDS. CPU TIME:     0.05 SEC, REAL TIME:     0.09 SEC
 SORT2 READ     1648902. AND WROTE     1675365. INTEGRALS IN     72 RECORDS. CPU TIME:     0.03 SEC, REAL TIME:     0.05 SEC

 Node minimum:      557845.  Node maximum:      559065. integrals

 OPERATOR DM      FOR CENTER  0  COORDINATES:    0.000000    0.000000    0.000000


 **********************************************************************************************************************************
 DATASETS  * FILE   NREC   LENGTH (MB)   RECORD NAMES
              1      18       28.78       500      610      700      900      950      970     1000      129      960     1100   
                                          VAR    BASINP    GEOM    SYMINP    ZMAT    AOBASIS   BASIS     P2S    ABASIS      S 
                                         1400     1410     1200     1210     1080     1600     1650     1700   
                                           T        V       H0       H01     AOSYM     SMH    MOLCAS    OPER   

 PROGRAMS   *        TOTAL       INT
 CPU TIMES  *         0.82      0.53
 REAL TIME  *         1.33 SEC
 DISK USED  *        29.12 MB (local),      122.15 MB (total)
 GA USED    *         0.00 MB       (max)       0.00 MB       (current)
 **********************************************************************************************************************************


 Program * Restricted Hartree-Fock

 Orbital guess generated from atomic densities.

 Initial occupancy:   9

 NELEC=   18   SYM=1   MS2= 0   THRE=1.0D-08   THRD=1.0D-06   THRG=1.0D-06  HFMA2=F  DIIS_START=2   DIIS_MAX=10   DIIS_INCORE=F

 Level shifts:    0.00 (CLOSED)    0.00 (OPEN)    0.30 (GAP_MIN)

 ITER           ETOT              DE          GRAD        DDIFF     DIIS  NEXP   TIME(IT)  TIME(TOT)  DIAG
   1     -115.03873552    -115.03873552     0.00D+00     0.55D-01     0     0       0.04      0.20    start
   2     -115.06790423      -0.02916870     0.92D-02     0.67D-02     1     0       0.16      0.36    diag
   3     -115.07447430      -0.00657007     0.47D-02     0.22D-02     2     0       0.12      0.48    diag
   4     -115.07495475      -0.00048045     0.92D-03     0.74D-03     3     0       0.12      0.60    diag
   5     -115.07498231      -0.00002756     0.18D-03     0.23D-03     4     0       0.13      0.73    diag
   6     -115.07498327      -0.00000096     0.31D-04     0.45D-04     5     0       0.11      0.84    diag
   7     -115.07498331      -0.00000004     0.67D-05     0.67D-05     6     0       0.12      0.96    diag
   8     -115.07498331      -0.00000000     0.22D-05     0.21D-05     7     0       0.12      1.08    fixocc
   9     -115.07498331      -0.00000000     0.48D-06     0.62D-06     8     0       0.14      1.22    diag
  10     -115.07498331      -0.00000000     0.82D-07     0.95D-07     0     0       0.12      1.34    diag/orth

 Final occupancy:   9

 !RHF STATE 1.1 Energy               -115.074983312306
  RHF One-electron energy            -237.839572481981
  RHF Two-electron energy              81.974062264036
  RHF Kinetic energy                  115.077195569612
  RHF Nuclear energy                   40.790526905639
  RHF Virial quotient                  -0.999980775884

 !RHF STATE 1.1 Dipole moment          -0.00002271    -0.61703560     0.37998027
 Dipole moment /Debye                  -0.00005773    -1.56834807     0.96581352

 Orbital energies:

           1.1          2.1          3.1          4.1          5.1          6.1          7.1          8.1          9.1         10.1
    -20.543073   -11.268331    -1.363590    -0.921116    -0.694694    -0.620865    -0.591066    -0.498737    -0.444254     0.154104

          11.1
      0.190711


 HOMO      9.1    -0.444254 =     -12.0888eV
 LUMO     10.1     0.154104 =       4.1934eV
 LUMO-HOMO         0.598358 =      16.2822eV

 Orbitals saved in record  2100.2


 **********************************************************************************************************************************
 DATASETS  * FILE   NREC   LENGTH (MB)   RECORD NAMES
              1      18       28.78       500      610      700      900      950      970     1000      129      960     1100   
                                          VAR    BASINP    GEOM    SYMINP    ZMAT    AOBASIS   BASIS     P2S    ABASIS      S 
                                         1400     1410     1200     1210     1080     1600     1650     1700   
                                           T        V       H0       H01     AOSYM     SMH    MOLCAS    OPER   

              2       4        0.49       700     1000      520     2100   
                                         GEOM     BASIS   MCVARS     RHF  

 PROGRAMS   *        TOTAL    HF-SCF       INT
 CPU TIMES  *         2.21      1.38      0.53
 REAL TIME  *         2.48 SEC
 DISK USED  *        29.55 MB (local),      123.43 MB (total)
 GA USED    *         0.00 MB       (max)       0.00 MB       (current)
 **********************************************************************************************************************************


 PROGRAM * OPT (Geometry optimization)     Authors: F. Eckert and H.-J. Werner


 BFGS update of hessian

 *** Long output written to logfile /home/lme/overlap_integral_gaussian/molpro_files/methanol/hf/methanol_hf.log ***


 Geometry optimization using default procedure for command HF-SCF

 Geometry written to block  1 of record 700

 Entering BMAT geometry-optimization, modelhes=F
 Optimization method: RF

 ITER.   ENERGY(OLD)    ENERGY(NEW)      DE          GRADMAX     GRADNORM    GRADRMS     STEPMAX     STEPLEN     STEPRMS   CPU-time
   1  -115.07498331  -115.07578774    -0.00080443  0.01848280  0.02888250  0.00680767  0.05349281  0.09555188  0.03900889      3.39
   2  -115.07578774  -115.07581066    -0.00002292  0.00327157  0.00523315  0.00123347  0.00641242  0.01296554  0.00529316      6.58
   3  -115.07581066  -115.07581193    -0.00000127  0.00094700  0.00126721  0.00029868  0.00105328  0.00259016  0.00105743     10.14
   4  -115.07581193  -115.07581202    -0.00000008  0.00020178  0.00026435  0.00006231  0.00047519  0.00090655  0.00037010     13.25
   5  -115.07581202  -115.07581202    -0.00000000  0.00001928  0.00002930  0.00000691  0.00004117  0.00010026  0.00004093     16.56
   6  -115.07581202  -115.07581202    -0.00000000  0.00000481  0.00000855  0.00000201  0.00001645  0.00003672  0.00001499     19.65
   7  -115.07581202  -115.07581202    -0.00000000  0.00000102  0.00000146  0.00000034  0.00000391  0.00000781  0.00000319     22.20
   8  -115.07581202  -115.07581202     0.00000000  0.00000017  0.00000030  0.00000007  0.00000162  0.00000247  0.00000101     24.59
   9  -115.07581202  -115.07581202    -0.00000000  0.00000016  0.00000026  0.00000006  0.00000114  0.00000169  0.00000069     27.11
  10  -115.07581202  -115.07581202    -0.00000000  0.00000011  0.00000019  0.00000004  0.00000117  0.00000181  0.00000074     29.93
  11  -115.07581202  -115.07581202    -0.00000000  0.00000013  0.00000016  0.00000004  0.00000101  0.00000150  0.00000061     32.43
  12  -115.07581202  -115.07581202     0.00000000  0.00000004  0.00000009  0.00000002  0.00000238  0.00000351  0.00000143     35.02

 END OF GEOMETRY OPTIMIZATION.

 Geometry written to block  1 of record 700

 Recomputing wavefunction for reoriented structure

 Current geometry (xyz format, in Angstrom)

    6
 HF-SCF000/6-311G(D,P)  ENERGY=-115.07581202
 H          0.0000145254        1.0004686785        1.0958924517
 C         -0.0000000249       -0.0130189351        0.7171646752
 H          0.8845726454       -0.5199984153        1.0982093081
 H         -0.8845864383       -0.5199736585        1.0982103773
 O         -0.0000000116        0.0629938661       -0.6800175635
 H         -0.0000002518       -0.8052404818       -1.0390998997

 **********************************************************************************************************************************


 **********************************************************************************************************************************
 DATASETS  * FILE   NREC   LENGTH (MB)   RECORD NAMES
              1      18       28.78       500      610      700      900      950      970     1000      129      960     1100   
                                          VAR    BASINP    GEOM    SYMINP    ZMAT    AOBASIS   BASIS     P2S    ABASIS      S 
                                         1400     1410     1200     1210     1080     1600     1650     1700   
                                           T        V       H0       H01     AOSYM     SMH    MOLCAS    OPER   

              2       4        0.49       700     1000      520     2100   
                                         GEOM     BASIS   MCVARS     RHF  

 PROGRAMS   *        TOTAL      OPTG    HF-SCF       INT
 CPU TIMES  *        38.95     36.73      1.38      0.53
 REAL TIME  *        37.23 SEC
 DISK USED  *        29.55 MB (local),      123.43 MB (total)
 SF USED    *         0.05 MB
 GA USED    *         0.00 MB       (max)       0.00 MB       (current)
 **********************************************************************************************************************************


 PROGRAM * HESSIAN

 PROGRAM * MCKINLEY (Hessian of the energy)     Author: A. Bernhardsson, R. Lindh

 Orbitals from record         2100.2

 Number of closed-shell orbitals:  9 (  9 )
 Number of occupied orbitals:      9 (  9 )

 Number of electrons= 18     Singlet     Space symmetry=1      Wavefunction type: CLOSED          


 McKinley needed     41.38 seconds of CPU time

 Entering CPHF calculation

 CPHF needed 142 iterations for 18 perturbations.  Total CPU time:   12.07 sec


 HF-SCF hessian saved to record  5300.2

 PROGRAM * FREQUENCIES (Calculation of harmonic vibrational spectra for HF-SCF)


 Permanent Dipole Moment [debye]
 1-3    0.000000    0.000000    0.000000

 Dipole Moment Norm    0.0000000 [debye]

 Dipole Moment Derivatives [debye/ang]
              1             2             3             4             5             6             7             8
    1    0.00000000    0.00000000    0.00000000    0.00000000    0.00000000    0.00000000    0.00000000    0.00000000
    2    0.00000000    0.00000000    0.00000000    0.00000000    0.00000000    0.00000000    0.00000000    0.00000000
    3    0.00000000    0.00000000    0.00000000    0.00000000    0.00000000    0.00000000    0.00000000    0.00000000
              9            10            11            12            13            14            15            16
    1    0.00000000    0.00000000    0.00000000    0.00000000    0.00000000    0.00000000    0.00000000    0.00000000
    2    0.00000000    0.00000000    0.00000000    0.00000000    0.00000000    0.00000000    0.00000000    0.00000000
    3    0.00000000    0.00000000    0.00000000    0.00000000    0.00000000    0.00000000    0.00000000    0.00000000
             17            18
    1    0.00000000    0.00000000
    2    0.00000000    0.00000000
    3    0.00000000    0.00000000

 Projecting out rotations and translations

 Force Constants (Second Derivatives of the Energy) in [a.u.]
                             HX1         HY1         HZ1         CX2         CY2     
           HX1           0.0547303
           HY1           0.0000041   0.3381601
           HZ1           0.0000014   0.0976641   0.1065771
           CX2          -0.0613245  -0.0000037  -0.0000011   0.6245980
           CY2          -0.0000037  -0.3205320  -0.0736149   0.0000003   0.6768881
           CZ2          -0.0000013  -0.0899347  -0.0828194   0.0000000   0.0170669
           HX3           0.0018135   0.0000292   0.0013822  -0.2451870   0.1034022
           HY3           0.0302284  -0.0141651   0.0102451   0.1022208  -0.1235915
           HZ3           0.0100651  -0.0038910   0.0060848  -0.0611957   0.0323479
           HX4           0.0018126  -0.0000297  -0.0013819  -0.2451926  -0.1033987
           HY4          -0.0302289  -0.0141643   0.0102452  -0.1022173  -0.1235858
           HZ4          -0.0100652  -0.0038907   0.0060848   0.0611968   0.0323463
           OX5           0.0025345   0.0000001  -0.0000004  -0.0729769   0.0000001
           OY5           0.0000001   0.0080160  -0.0458415  -0.0000000  -0.1146428
           OZ5           0.0000000  -0.0017563  -0.0273535  -0.0000000   0.0414087
           HX6           0.0004336  -0.0000000  -0.0000001   0.0000830  -0.0000001
           HY6           0.0000000   0.0026853   0.0013020   0.0000000   0.0054640
           HZ6           0.0000000   0.0018086  -0.0085738  -0.0000000  -0.0495549
                             CZ2         HX3         HY3         HZ3         HX4     
           CZ2           0.5692534
           HX3          -0.0657919   0.2577992
           HY3           0.0371142  -0.1153982   0.1212966
           HZ3          -0.0825701   0.0777787  -0.0455439   0.1024938
           HX4           0.0657931  -0.0244630  -0.0151739   0.0077480   0.2578055
           HY4           0.0371123   0.0151749   0.0107495  -0.0057172   0.1153943
           HZ4          -0.0825701  -0.0077482  -0.0057170   0.0067590  -0.0777802
           OX5           0.0000002   0.0102616  -0.0006146  -0.0337693   0.0102618
           OY5          -0.0091281  -0.0032143   0.0049991   0.0215351   0.0032142
           OZ5          -0.3005970  -0.0046621   0.0039580  -0.0346232   0.0046623
           HX6          -0.0000001  -0.0002243  -0.0012625  -0.0006269  -0.0002243
           HY6           0.0077693   0.0000061   0.0007113   0.0012692  -0.0000062
           HZ6          -0.0206969  -0.0009587  -0.0000564   0.0018557   0.0009586
                             HY4         HZ4         OX5         OY5         OZ5     
           HY4           0.1212902
           HZ4          -0.0455418   0.1024939
           OX5           0.0006144   0.0337698   0.0533217
           OY5           0.0049991   0.0215341   0.0000000   0.6471735
           OZ5           0.0039580  -0.0346233  -0.0000002   0.1695981   0.5229902
           HX6           0.0012625   0.0006269  -0.0034027   0.0000000   0.0000001
           HY6           0.0007112   0.0012691  -0.0000001  -0.5505448  -0.2171664
           HZ6          -0.0000564   0.0018555  -0.0000000  -0.1576977  -0.1257933
                             HX6         HY6         HZ6     
           HX6           0.0033347
           HY6           0.0000001   0.5409730
           HZ6           0.0000001   0.2055568   0.1513528


 Atomic Masses
 1-6    1.007825   12.000000    1.007825    1.007825   15.994910    1.007825

 Mass weighted Second Derivative Matrix
                             HX1         HY1         HZ1         CX2         CY2     
           HX1           0.0543053
           HY1           0.0000040   0.3355346
           HZ1           0.0000013   0.0969058   0.1057496
           CX2          -0.0176340  -0.0000011  -0.0000003   0.0520498
           CY2          -0.0000011  -0.0921697  -0.0211681   0.0000000   0.0564073
           CZ2          -0.0000004  -0.0258609  -0.0238149   0.0000000   0.0014222
           HX3           0.0017994   0.0000290   0.0013714  -0.0705041   0.0297335
           HY3           0.0299937  -0.0140551   0.0101656   0.0293938  -0.0355390
           HZ3           0.0099870  -0.0038608   0.0060375  -0.0175970   0.0093017
           HX4           0.0017985  -0.0000294  -0.0013711  -0.0705057  -0.0297325
           HY4          -0.0299942  -0.0140543   0.0101656  -0.0293928  -0.0355374
           HZ4          -0.0099870  -0.0038605   0.0060376   0.0175973   0.0093013
           OX5           0.0006313   0.0000000  -0.0000001  -0.0052675   0.0000000
           OY5           0.0000000   0.0019965  -0.0114176  -0.0000000  -0.0082749
           OZ5           0.0000000  -0.0004374  -0.0068128  -0.0000000   0.0029889
           HX6           0.0004302  -0.0000000  -0.0000001   0.0000239  -0.0000000
           HY6           0.0000000   0.0026644   0.0012919   0.0000000   0.0015712
           HZ6           0.0000000   0.0017946  -0.0085072  -0.0000000  -0.0142496
                             CZ2         HX3         HY3         HZ3         HX4     
           CZ2           0.0474378
           HX3          -0.0189186   0.2557976
           HY3           0.0106723  -0.1145022   0.1203549
           HZ3          -0.0237432   0.0771748  -0.0451903   0.1016980
           HX4           0.0189189  -0.0242731  -0.0150561   0.0076879   0.2558038
           HY4           0.0106717   0.0150571   0.0106661  -0.0056728   0.1144984
           HZ4          -0.0237432  -0.0076880  -0.0056726   0.0067066  -0.0771763
           OX5           0.0000000   0.0025558  -0.0001531  -0.0084108   0.0025559
           OY5          -0.0006589  -0.0008006   0.0012451   0.0053637   0.0008005
           OZ5          -0.0216972  -0.0011612   0.0009858  -0.0086235   0.0011612
           HX6          -0.0000000  -0.0002225  -0.0012527  -0.0006220  -0.0002226
           HY6           0.0022341   0.0000061   0.0007058   0.0012593  -0.0000061
           HZ6          -0.0059514  -0.0009512  -0.0000560   0.0018413   0.0009512
                             HY4         HZ4         OX5         OY5         OZ5     
           HY4           0.1203485
           HZ4          -0.0451882   0.1016981
           OX5           0.0001530   0.0084110   0.0033337
           OY5           0.0012451   0.0053634   0.0000000   0.0404612
           OZ5           0.0009858  -0.0086235  -0.0000000   0.0106033   0.0326973
           HX6           0.0012527   0.0006221  -0.0008475   0.0000000   0.0000000
           HY6           0.0007057   0.0012593  -0.0000000  -0.1371227  -0.0540890
           HZ6          -0.0000560   0.0018411  -0.0000000  -0.0392773  -0.0313310
                             HX6         HY6         HZ6     
           HX6           0.0033088
           HY6           0.0000001   0.5367727
           HZ6           0.0000001   0.2039608   0.1501777


 Mass Weighted 2nd Derivative Matrix Eigenvalues
 1-10    0.000000    0.000000    0.000000    0.000000    0.000000    0.000000    0.004431    0.050905    0.052635    0.061720
 11-18    0.083886    0.098740    0.099182    0.100589    0.373249    0.383870    0.401433    0.663298

 Mass Weighted 2nd Derivative Matrix Eigenvectors
              1             2             3             4             5             6             7             8
    1    0.59519673   -0.00622082    0.00229710   -0.00893200   -0.00198939    0.00109864    0.28184942    0.00000111
    2    0.00047232    0.01294590    0.02514418    0.09502452   -0.16906148    0.22780978   -0.00000389   -0.13292942
    3    0.00272889    0.08258970   -0.00044805    0.05836250    0.25383947   -0.07641114    0.00000099    0.53180024
    4    0.40156320    0.18542185    0.14163471    0.44290672   -0.29613011   -0.43151100    0.01500213    0.00000024
    5    0.00257839   -0.04108142    0.05744161    0.37318633   -0.35955537    0.63339201    0.00000086    0.23813653
    6    0.00694135    0.51445583    0.07691429    0.08016587    0.27698638    0.14496608    0.00000069   -0.01236813
    7   -0.06845476    0.11898287   -0.01702495    0.25083138   -0.16559235   -0.23224802   -0.09732835   -0.03650664
    8   -0.38574932    0.08585405    0.01413822    0.24593895   -0.26454772    0.09243120   -0.21200948   -0.19478427
    9   -0.08315261    0.12769200    0.15376087   -0.07776080    0.05211749    0.16961386   -0.04689971   -0.26846843
   10   -0.06844385    0.11898090   -0.01702479    0.25082726   -0.16558976   -0.23224431   -0.09732185    0.03650535
   11    0.38670937   -0.05966166    0.03625466   -0.05605789   -0.07436437    0.36373650    0.21201209   -0.19478763
   12    0.08645819    0.23701911   -0.08643286    0.08907952   -0.06521945    0.03288408    0.04689974   -0.26845720
   13    0.06220315   -0.15480337    0.92299781   -0.06525651    0.05984306   -0.02158011   -0.25138345    0.00000016
   14    0.00692369   -0.41264879   -0.05857129    0.62379381    0.53812361    0.08087472   -0.00000038   -0.00987596
   15    0.00822863    0.57407838    0.08200437    0.10304983    0.37164566    0.13198190   -0.00000077   -0.13319757
   16   -0.39790416    0.01036511    0.26958496    0.09796479   -0.05449661   -0.11081181    0.86249727   -0.00000131
   17    0.00199269   -0.12714269   -0.02275919    0.16902954    0.19657323   -0.02165708   -0.00000017   -0.25987518
   18    0.00144988    0.20107210    0.04006526   -0.00422935   -0.05540246    0.13458083   -0.00000034    0.57843667
              9            10            11            12            13            14            15            16
    1    0.00000097   -0.25059456   -0.00000097    0.00003443    0.70911348   -0.00001580    0.00000378   -0.02309268
    2   -0.00634764    0.00000206    0.02160282   -0.25916549    0.00000252   -0.06192044    0.25515538    0.00000193
    3   -0.14325659    0.00000756   -0.37842077    0.58908028   -0.00002903    0.14515981    0.08949288    0.00000062
    4   -0.00000142    0.42211376   -0.00000101   -0.00001173   -0.19739634    0.00000186    0.00000207   -0.31124553
    5    0.03101875   -0.00000072   -0.38015625   -0.07090014    0.00000341   -0.14403080    0.10468762    0.00000425
    6   -0.67307918   -0.00000252   -0.03963470   -0.34644416    0.00002196    0.16382886   -0.14193190   -0.00000029
    7   -0.00318404   -0.16569171    0.09233671   -0.01465826    0.05947320    0.40276634    0.55349268    0.54417809
    8    0.00238194   -0.08335560    0.17277682    0.29177869    0.37091816    0.39805094   -0.30589801   -0.32509829
    9   -0.16741092    0.56683865    0.15641964    0.37908302    0.29549521   -0.36877857    0.21889151    0.22243475
   10    0.00318490   -0.16568841   -0.09233336    0.01467315    0.05944379   -0.40275810   -0.55350345    0.54418481
   11    0.00238180    0.08335444    0.17278139    0.29173846   -0.37093386    0.39807787   -0.30588396    0.32508191
   12   -0.16740620   -0.56684778    0.15641214    0.37905131   -0.29555141   -0.36876487    0.21889308   -0.22243455
   13    0.00000052   -0.21809261   -0.00000006   -0.00000200   -0.03426904    0.00000025   -0.00000006    0.00200704
   14   -0.03214052    0.00000041    0.29273873   -0.02146423    0.00000025   -0.06604328   -0.00079031   -0.00000010
   15    0.67443554    0.00000235   -0.11505044   -0.02874986    0.00000239    0.02962211   -0.00809460    0.00000005
   16    0.00000099   -0.00574366    0.00000133   -0.00000089   -0.01036800    0.00000015    0.00000009    0.00072650
   17    0.02259138   -0.00000005   -0.22159823    0.00580767    0.00000038    0.02589195   -0.00146293    0.00000017
   18    0.11379781    0.00000093    0.66069236   -0.03723101   -0.00000003   -0.09093751   -0.00527607   -0.00000005
             17            18
    1    0.00001246    0.00000015
    2    0.86907731    0.01065203
    3    0.31119622    0.00409141
    4   -0.00000379    0.00000000
    5   -0.29379859   -0.00581702
    6   -0.05859897    0.00256935
    7   -0.14607721   -0.00043738
    8    0.06704220    0.00053599
    9   -0.05582593    0.00233813
   10    0.14607773    0.00043724
   11    0.06703725    0.00053580
   12   -0.05582559    0.00233811
   13    0.00000006   -0.00000004
   14    0.00593970   -0.22208365
   15    0.00004801   -0.09935566
   16   -0.00000014    0.00000015
   17   -0.01302995    0.89308703
   18    0.00246723    0.37818029

   Low Vibration      Wavenumber
        Nr             [1/cm] 
        1                0.00
        2                0.00
        3                0.00
        4                0.00
        5                0.00
        6                0.00

     Vibration        Wavenumber
        Nr             [1/cm] 
        1              342.16
        2             1159.80
        3             1179.35
        4             1277.07
        5             1488.84
        6             1615.29
        7             1618.90
        8             1630.35
        9             3140.53
       10             3184.91
       11             3256.95
       12             4186.57

 FREQUENCIES * CALCULATION OF NORMAL MODES FOR HF-SCF


 Atomic Coordinates

  Nr  Atom  Charge       X              Y              Z

   1   H     1.00    0.000027449    1.890611799    2.070936596
   2   C     6.00   -0.000000047   -0.024602222    1.355244822
   3   H     1.00    1.671600037   -0.982654590    2.075314820
   4   H     1.00   -1.671626102   -0.982607807    2.075316840
   5   O     8.00   -0.000000022    0.119041155   -1.285046955
   6   H     1.00   -0.000000476   -1.521683975   -1.963614227

 Gradient norm at reference geometry: 0.86942D-07

 Normal Modes

                              1 A         2 A         3 A         4 A         5 A  
 Wavenumbers [cm-1]          342.16     1159.80     1179.35     1277.07     1488.84
 Intensities [km/mol]          0.00        0.00        0.00        0.00        0.00
 Intensities [relative]        0.00        0.00        0.00        0.00        0.00
           HX1              0.28075     0.00000     0.00000    -0.24962    -0.00000
           HY1             -0.00000    -0.13241    -0.00632     0.00000     0.02152
           HZ1              0.00000     0.52973    -0.14270     0.00001    -0.37695
           CX2              0.00433     0.00000    -0.00000     0.12185    -0.00000
           CY2              0.00000     0.06874     0.00895    -0.00000    -0.10974
           CZ2              0.00000    -0.00357    -0.19430    -0.00000    -0.01144
           HX3             -0.09695    -0.03636    -0.00317    -0.16505     0.09198
           HY3             -0.21118    -0.19403     0.00237    -0.08303     0.17210
           HZ3             -0.04672    -0.26742    -0.16676     0.56463     0.15581
           HX4             -0.09694     0.03636     0.00317    -0.16504    -0.09197
           HY4              0.21119    -0.19403     0.00237     0.08303     0.17211
           HZ4              0.04672    -0.26741    -0.16676    -0.56464     0.15580
           OX5             -0.06286     0.00000     0.00000    -0.05453    -0.00000
           OY5             -0.00000    -0.00247    -0.00804     0.00000     0.07320
           OZ5             -0.00000    -0.03330     0.16864     0.00000    -0.02877
           HX6              0.85914    -0.00000     0.00000    -0.00572     0.00000
           HY6             -0.00000    -0.25886     0.02250    -0.00000    -0.22074
           HZ6             -0.00000     0.57619     0.11336     0.00000     0.65812

                              6 A         7 A         8 A         9 A        10 A  
 Wavenumbers [cm-1]         1615.29     1618.90     1630.35     3140.53     3184.91
 Intensities [km/mol]          0.00        0.00        0.00        0.00        0.00
 Intensities [relative]        0.00        0.00        0.00        0.00        0.00
           HX1              0.00003     0.70636    -0.00002     0.00000    -0.02300
           HY1             -0.25816     0.00000    -0.06168     0.25416     0.00000
           HZ1              0.58679    -0.00003     0.14460     0.08914     0.00000
           CX2             -0.00000    -0.05698     0.00000     0.00000    -0.08985
           CY2             -0.02047     0.00000    -0.04158     0.03022     0.00000
           CZ2             -0.10001     0.00001     0.04729    -0.04097    -0.00000
           HX3             -0.01460     0.05924     0.40120     0.55134     0.54206
           HY3              0.29064     0.36948     0.39650    -0.30471    -0.32383
           HZ3              0.37761     0.29435    -0.36734     0.21804     0.22157
           HX4              0.01462     0.05921    -0.40119    -0.55135     0.54207
           HY4              0.29060    -0.36949     0.39653    -0.30469     0.32382
           HZ4              0.37758    -0.29440    -0.36733     0.21804    -0.22157
           OX5             -0.00000    -0.00857     0.00000    -0.00000     0.00050
           OY5             -0.00537     0.00000    -0.01651    -0.00020    -0.00000
           OZ5             -0.00719     0.00000     0.00741    -0.00202     0.00000
           HX6             -0.00000    -0.01033     0.00000     0.00000     0.00072
           HY6              0.00579     0.00000     0.02579    -0.00146     0.00000
           HZ6             -0.03709    -0.00000    -0.09058    -0.00526    -0.00000

                             11 A        12 A  
 Wavenumbers [cm-1]         3256.95     4186.57
 Intensities [km/mol]          0.00        0.00
 Intensities [relative]        0.00        0.00
           HX1              0.00001     0.00000
           HY1              0.86570     0.01061
           HZ1              0.30999     0.00408
           CX2             -0.00000    -0.00000
           CY2             -0.08481    -0.00168
           CZ2             -0.01692     0.00074
           HX3             -0.14551    -0.00044
           HY3              0.06678     0.00053
           HZ3             -0.05561     0.00233
           HX4              0.14551     0.00044
           HY4              0.06678     0.00053
           HZ4             -0.05561     0.00233
           OX5              0.00000    -0.00000
           OY5              0.00149    -0.05553
           OZ5              0.00001    -0.02484
           HX6             -0.00000     0.00000
           HY6             -0.01298     0.88961
           HZ6              0.00246     0.37671


 Normal Modes of low/zero frequencies

                                  1           2           3           4           5
 Wavenumbers [cm-1]            0.00        0.00        0.00        0.00        0.00
 Intensities [km/mol]          0.00        0.00        0.00        0.00        0.00
 Intensities [relative]        0.00        0.00        0.00        0.00        0.00
           HX1              0.59288    -0.00620     0.00229    -0.00890    -0.00198
           HY1              0.00047     0.01290     0.02505     0.09465    -0.16840
           HZ1              0.00272     0.08227    -0.00045     0.05814     0.25285
           CX2              0.11592     0.05353     0.04089     0.12786    -0.08549
           CY2              0.00074    -0.01186     0.01658     0.10773    -0.10379
           CZ2              0.00200     0.14851     0.02220     0.02314     0.07996
           HX3             -0.06819     0.11852    -0.01696     0.24986    -0.16495
           HY3             -0.38425     0.08552     0.01408     0.24498    -0.26352
           HZ3             -0.08283     0.12720     0.15316    -0.07746     0.05191
           HX4             -0.06818     0.11852    -0.01696     0.24985    -0.16495
           HY4              0.38521    -0.05943     0.03611    -0.05584    -0.07408
           HZ4              0.08612     0.23610    -0.08610     0.08873    -0.06497
           OX5              0.01555    -0.03871     0.23079    -0.01632     0.01496
           OY5              0.00173    -0.10318    -0.01465     0.15597     0.13455
           OZ5              0.00206     0.14354     0.02050     0.02577     0.09293
           HX6             -0.39636     0.01032     0.26854     0.09758    -0.05428
           HY6              0.00198    -0.12665    -0.02267     0.16837     0.19581
           HZ6              0.00144     0.20029     0.03991    -0.00421    -0.05519

                                  6
 Wavenumbers [cm-1]            0.00
 Intensities [km/mol]          0.00
 Intensities [relative]        0.00
           HX1              0.00109
           HY1              0.22692
           HZ1             -0.07611
           CX2             -0.12457
           CY2              0.18284
           CZ2              0.04185
           HX3             -0.23134
           HY3              0.09207
           HZ3              0.16895
           HX4             -0.23134
           HY4              0.36232
           HZ4              0.03276
           OX5             -0.00540
           OY5              0.02022
           OZ5              0.03300
           HX6             -0.11038
           HY6             -0.02157
           HZ6              0.13406


 Frequencies dumped to record   5400.2

 Zero point energy:  0.05485993 [H]    12040.36 [1/CM]      144.03 [KJ/MOL]
 Frequency information read from record  5400.2


 **********************************************************************************************************************************
 DATASETS  * FILE   NREC   LENGTH (MB)   RECORD NAMES
              1      18       28.78       500      610      700      900      950      970     1000      129      960     1100   
                                          VAR    BASINP    GEOM    SYMINP    ZMAT    AOBASIS   BASIS     P2S    ABASIS      S 
                                         1400     1410     1200     1210     1080     1600     1650     1700   
                                           T        V       H0       H01     AOSYM     SMH    MOLCAS    OPER   

              2       7        0.54       700     1000      520     2100     5300     5450     5400   
                                         GEOM     BASIS   MCVARS     RHF     HESS     NMOD     FREQ   

              4       5        1.06      4100     4000     4200     4300     4400   

 PROGRAMS   *        TOTAL      FREQ      OPTG    HF-SCF       INT
 CPU TIMES  *        92.40     53.45     36.73      1.38      0.53
 REAL TIME  *        80.66 SEC
 DISK USED  *        29.55 MB (local),      123.43 MB (total)
 SF USED    *         1.06 MB
 GA USED    *         0.00 MB       (max)       0.00 MB       (current)
 **********************************************************************************************************************************

 Dump information in style MOLDEN to methanol_hf.molden                                                              

 Molecular orbitals read from record     2100.2  Type=RHF/CANONICAL  
 Occupation numbers read from record     2100.2  Type=RHF/RHF  
 Orbital energies read from record       2100.2  Type=RHF/CANONICAL  
 Redundancy group numbers read from rec  2100.2  Type=RHF/RHF  

 DUMP ORBITAL  1.1 AS ORBITAL    1  occ=    2.0000  eig=  -20.5412  GROUP=   2
 DUMP ORBITAL  2.1 AS ORBITAL    2  occ=    2.0000  eig=  -11.2657  GROUP=   2
 DUMP ORBITAL  3.1 AS ORBITAL    3  occ=    2.0000  eig=   -1.3621  GROUP=   2
 DUMP ORBITAL  4.1 AS ORBITAL    4  occ=    2.0000  eig=   -0.9267  GROUP=   2
 DUMP ORBITAL  5.1 AS ORBITAL    5  occ=    2.0000  eig=   -0.6945  GROUP=   2
 DUMP ORBITAL  6.1 AS ORBITAL    6  occ=    2.0000  eig=   -0.6209  GROUP=   2
 DUMP ORBITAL  7.1 AS ORBITAL    7  occ=    2.0000  eig=   -0.5957  GROUP=   2
 DUMP ORBITAL  8.1 AS ORBITAL    8  occ=    2.0000  eig=   -0.4979  GROUP=   2
 DUMP ORBITAL  9.1 AS ORBITAL    9  occ=    2.0000  eig=   -0.4449  GROUP=   2

 Total charge:      18.000000
 Frequency information read from record  5400.2

 **********************************************************************************************************************************

 HF/6-311G(D,P)//HF/6-311G(D,P) energy=   -115.075812017090

    OPTG(HF-SCF)          HF-SCF
   -115.07581202   -115.07498331
 **********************************************************************************************************************************
 Molpro calculation terminated
