[Molden Format]
[Molpro variables]
_NUMVAR=  1059.000000000000    
_AVOGAD= 0.6022140760000000E+24
_BOLTZ= 0.1380649000000000E-22
_CLIGHTSI=  299792458.0000000    
_JOULE= 0.4359744722207100E-17
_JPCAL=  4.184000000000000    
_PLANCK= 0.6626070150000000E-33
_BOHR= 0.5291772109030000E-10
_ECHARG= 0.1602176634000000E-18
_ENULL= 0.8854187812800001E-11
_MU= 0.1660539066600000E-26
_EMASS= 0.9109383701500001E-30
_AMU2AU=  1822.888486217313    
_CLIGHT=  29979245800.00000    
_EV= 0.3674932217565494E-01
_KJOULE= 0.3808798847133432E-03
_KJOULE/MOL= 0.3808798847133432E-03
_CM= 0.4556335252912009E-05
_CM-1= 0.4556335252912009E-05
_DEB2SI= 0.3335640951981520E-29
_KCAL= 0.1593601437640628E-02
_KCAL/MOL= 0.1593601437640628E-02
_KELVIN= 0.3166811563455608E-05
_HERTZ= 0.1519829846057038E-15
_HZ= 0.1519829846057038E-15
_TOA= 0.5291772109030000    
_TOANG= 0.5291772109030000    
_TORAD= 0.1745329251994330E-01
_TOCM=  219474.6313631965    
_TODEBYE=  2.541746473194078    
_TOE= 0.4803204712570263E-09
_TOEV=  27.21138624598803    
_TOHERTZ=  6579683920501656.    
_TOHZ=  6579683920501656.    
_TOK=  315775.0248040668    
_TOKCAL=  627.5094740630558    
_TOKELVIN=  315775.0248040668    
_TOKJ=  2625.499639479825    
_TOKJOULE=  2625.499639479825    
_TOKG= 0.1660539066600000E-26
_ANG=  1.889726124625770    
_ANGSTROM=  1.889726124625770    
_RPAREF=  0.000000000000000    
_RPADISS=  0.000000000000000    
_IGNORE_UNDEF=  2.000000000000000    
_STRICTCHECK=  0.000000000000000    
!SEWARD=  0.000000000000000    
!MULTI=  0.000000000000000    
!DFMULTI=  0.000000000000000    
_SEW_ONEEL=  0.000000000000000    
_CPPDONE=FALSE
_DKROLL_DONE=  0.000000000000000    
_FNUC_DONE=  0.000000000000000    
_FOCKDONE=TRUE
_GRADONE=FALSE
_HESSDONE=TRUE
_INTDONE=TRUE
_SCFDONE=TRUE
_MODUL_BLOCK=FALSE
_MODUL_SLATER=FALSE
_MODUL_MRCC=FALSE
_MODUL_NBO6=FALSE
_MODUL_NECI=FALSE
_MODUL_AIMS=TRUE
_MODUL_HDF5=FALSE
_MODUL_GECCO=FALSE
_ISWINDOWS=FALSE
_MRCC_EXEC=
_FITC_AO_SAVED=FALSE
_FITC_MO_SAVED=FALSE
_SHARED_FS=TRUE
_LSTYP=SEWARD
_INTYP=INTS
_GEOMTYP=ZMAT
_GRADTYP=ALASKA
_DIRECT=FALSE
_DKHO= -1.000000000000000    
_FNUC=  0.000000000000000    
_SYNCM=  0.000000000000000    
_BASIS=6-311G(D,P)
_ZCENTRE=MASS
_ZORIENT=  1.000000000000000    
_NELEC=  18.00000000000000    
!SPIN=  0.000000000000000    
_OPTCONV= 0.3505543381749212E-05
_QSDSTEP=  0.000000000000000    
_QSDIRC=  0.000000000000000    
_PROGRAM=FREQ
_CPUSTEP=  53.45000000000000    
_SYSSTEP= 0.5300000000000000    
_WALLSTEP=  43.43000000000000    
!DFSCF=  0.000000000000000    
!SCSGRD=  0.000000000000000    
_NCEN=  6.000000000000000    
_CPUTOT=  92.40000000000001    
_DFTEXFAC=  1.000000000000000    
_DMX= 0.5353560979633074E-06
_DMY=-0.6119802075069998    
_DMZ= 0.3803764950197204    
_DMX_SCF= 0.5353560979633074E-06
_DMY_SCF=-0.6119802075069998    
_DMZ_SCF= 0.3803764950197204    
_FREQUENCIES= 0.9857046349670866E-04
_HOMO=  9.100000000000000    
_EHOMO=-0.4449028575886335    
_LUMO=  10.10000000000000    
_ELUMO= 0.1554975685009124    
_ENERGY= -115.0758120170901    
_ENERGY_METHOD=HF
_ENERGY_BASIS=6-311G(D,P)
_GEOMETRY_METHOD=HF
_GEOMETRY_BASIS=6-311G(D,P)
_ENUC=  40.81815298398089    
_GRADENERG= -115.0758120170896    
_GRADEXFAC=  9999.000000000000    
_GRADMETHOD=  1.000000000000000    
_NMRMETHOD=  0.000000000000000    
_NMRMAGNET=  0.000000000000000    
_VIRIAL= 0.2888603597836340E-07
!GRID_FREEZE= -1.000000000000000    
!NEESE_INDEX=  0.000000000000000    
_ITERATIONS=  10.00000000000000    
_LASTNELEC=  18.00000000000000    
_LASTSPIN=  0.000000000000000    
_LASTSYM=  1.000000000000000    
_MPP_PROG=  1.000000000000000    
_MSNSTATES=  0.000000000000000    
_RS2PHASE=  0.000000000000000    
_IPROC_MPP=  0.000000000000000    
_IPROC_MPPX=  0.000000000000000    
_NPROC_MPP=  3.000000000000000    
_NPROC_MPPX=  3.000000000000000    
_NPROC_SMP=  6.000000000000000    
_NUMSTEP=  0.000000000000000    
_OPTCONVMX= 0.2375303300969131E-05
_OPTCONVRMS= 0.1431192763529810E-05
_OPTGRAD= 0.8694170533908487E-07
_OPTGRADMX= 0.3908158152654551E-07
_OPTGRADRMS= 0.2049235647106319E-07
_OPTSTEP=  12.00000000000000    
_ORBITAL=  2100.200000000000    
_PI=  3.141592653589793    
_SEIG_MIN= 0.8485407383161286E-02
_SEWPROP=TRUE
_STATUS=  1.000000000000000    
_SYSTOT=  1.810000000000000    
_VERSION=  2022003.000000000    
_WALLTOT=  80.66000000000000    
_ZPE= 0.5485992946268031E-01
_DATE=27-Aug-25
_LASTORB=0
_OUTPUT=/home/lme/overlap_integral_gaussian/molpro_files/methanol/hf/methanol_hf.out
_PGROUP=C1
_TIME=08:33:09
_LIBMOL=/usr/local/molpro/molpro_2022.3.0_sockets/lib/
_VIGRDC=  0.000000000000000    
!VIBCNT=  0.000000000000000    
!RGHFCNT=  0.000000000000000    
!SURFREC=  0.000000000000000    
!XSURFREC=  0.000000000000000    
!XPOLYREC=  0.000000000000000    
!ROTREC=  0.000000000000000    
!POLYREC=  0.000000000000000    
!DIPREC=  0.000000000000000    
!DIP4DREC=  0.000000000000000    
!DIPROT=  0.000000000000000    
!DIP4DROT=  0.000000000000000    
!PTREC=  0.000000000000000    
!PT4DREC=  0.000000000000000    
!VSCFREC=  0.000000000000000    
!VCIREC=  0.000000000000000    
!PVCIREC=  0.000000000000000    
!VMP2REC=  0.000000000000000    
!VMCSCFREC=  0.000000000000000    
!VMRCIREC=  0.000000000000000    
!VIBSTATEREC=  0.000000000000000    
!VIBSTATECNT=  0.000000000000000    
!VIBINFO=  0.000000000000000    
!GAREC=  0.000000000000000    
!SCFORB=  21002.00000000000    
!DEFCORE=  2.000000000000000    
!SCORE=  0.000000000000000    
!NEWMOL=  0.000000000000000    
!NEWSYM=  0.000000000000000    
_SLFILES=slscratch
_NGSSTO=  9.000000000000000    
_SIN=SIN
_COS=COS
_TAN=TAN
_ACOS=ACOS
_ASIN=ASIN
_ATAN=ATAN
_COSH=COSH
_SINH=SINH
_TANH=TANH
_ABS=ABS
_MOD=MOD
_ERF=ERF
_REFC=REFC
_ERFC=ERFC
_HYPOT=HYPOT
_J0=J0
_J1=J1
_JN=JN
_GAMMA=GAMMA
_LGAMMA=LGAMMA
_Y0=Y0
_Y1=Y1
_YN=YN
_EXP=EXP
_LOG=LOG
_LOG10=LOG10
_SQRT=SQRT
_INT=INT
_NINT=NINT
_MAX=MAX
_MIN=MIN
_COSMO=  0.000000000000000    
_COSMOIT=  0.000000000000000    
_COSMOES=  0.000000000000000    
_COSMOEDS=  0.000000000000000    
_COSMOEC=  0.000000000000000    
_COSMOEDCORR=  0.000000000000000    
_FEPSI=  1.000000000000000    
_SL_IsMM=  0.000000000000000    
_SL_NSYM=  1.000000000000000    
_SL_System_BitSw=  0.000000000000000    
_SL_Unique_atoms=  0.000000000000000    
_SL_GRAD=  0.000000000000000    
_SL_MAXUPD_Hess=  5.000000000000000    
_SL_N_PRINT_COD=  5.000000000000000    
_SL_PRINT_CODES=  0.000000000000000    
_SL_BasType=  0.000000000000000    
_SL_Energy_Pred=  0.000000000000000    
_SL_New_Coords=  0.000000000000000    
_SL_Total_Nuclea=  0.000000000000000    
_SL_Highest_Mltp=  0.000000000000000    
_SL_Ref_Geom=  0.000000000000000    
_SL_Symmetry_ope=  1.000000000000000    
_SL_agrad=  0.000000000000000    
_SL_GrdMax=  0.000000000000000    
_SL_GrdNorm=  0.000000000000000    
_SL_GrdRMS=  0.000000000000000    
_SL_Hss_Q=  0.000000000000000    
_SL_Hss_X=  0.000000000000000    
_SL_BMxOld=  0.000000000000000    
_SL_KtB=  0.000000000000000    
_SL_TROld=  0.000000000000000    
_SL_No_of_Intern=  0.000000000000000    
_SL_Hess=  0.000000000000000    
_SL_K=  0.000000000000000    
!LATTICE= -1.000000000000000    
!NEWLATTICE=  0.000000000000000    
!LATGRAD_VAR=FALSE
!SEW_LATTICE=  1.000000000000000    
!AIC_ONEEL=  0.000000000000000    
!LOCAL=  0.000000000000000    
!SAVEDOM= -1.000000000000000    
!RESTDOM= -1.000000000000000    
!SAVEDOM_HF= -1.000000000000000    
!RESTDOM_HF= -1.000000000000000    
!HESSREC=  5300.200000000000    
!FREQREC=  5400.200000000000    
!NMODREC=  5450.200000000000    
!GTASKS=  0.000000000000000    
!HTASKS=  0.000000000000000    
!SAVEDOM_EOM= -1.000000000000000    
!RESTDOM_EOM= -1.000000000000000    
!GRADSTATE= -1.000000000000000    
!DEBUG=  0.000000000000000    
!CFIT_CPHF=  0.000000000000000    
!RDOMAUX_CPHF=  0.000000000000000    
!THRAO_CPHF= 0.1000000000000000E-11
!THRMO_CPHF= 0.1000000000000000E-11
!THROV_CPHF= 0.1000000000000000E-11
!THRSW_CPHF= 0.1000000000000000E-11
!THRPROD_CPHF= 0.1000000000000000E-11
!THRAOPR_CPHF= 0.1000000000000000E-11
!CFIT_SCFGRD=  0.000000000000000    
!RDOMAUX_SCFGRD=  0.000000000000000    
!THRAO_SCFGRD= 0.1000000000000000E-11
!THRMO_SCFGRD= 0.1000000000000000E-11
!THROV_SCFGRD= 0.1000000000000000E-11
!THRSW_SCFGRD= 0.1000000000000000E-11
!THRPROD_SCFGRD= 0.1000000000000000E-11
!THRAOPR_SCFGRD= 0.1000000000000000E-11
!LOCFIT_SCF=  0.000000000000000    
!LOCFIT_MP2=  0.000000000000000    
_RIDOM=  0.000000000000000    
!CC2_METHOD=  0.000000000000000    
_BASIS2006=FALSE
_SVDDEL= -1.000000000000000    
_SVDDELA= -1.000000000000000    
_SVDDELP= -1.000000000000000    
_SVDDELF= -1.000000000000000    
_SVDDELS= -1.000000000000000    
_SVDDEL_ABS= -1.000000000000000    
_SVDDELA_ABS= -1.000000000000000    
_SVDDELP_ABS= -1.000000000000000    
_SVDDELF_ABS= -1.000000000000000    
_SVDDELS_ABS= -1.000000000000000    
_MAXBASIS=  0.000000000000000    
!OPT_CONICAL=  0.000000000000000    
!CLEARSP_JGRID=  0.000000000000000    
_GRDHYBR=  0.000000000000000    
_STATEGRAD=  1.000000000000000    
_4EXT_NDISKS=  1.000000000000000    
!EMBEDFLAG=  1.000000000000000    
!EMBED=FALSE
!EMBED_F12=FALSE
!EMBEDNUC=  0.000000000000000    
_EMBEDENERGY=  0.000000000000000    
!EMBED_DFC=FALSE
!NUM_VOIDS=  0.000000000000000    
_IBODY=  0.000000000000000    
_EMBE_CORR=  0.000000000000000    
!EMBED_PROJ=FALSE
!EMB_PROJ_ZMU=  1000000.000000000    
!CORRECTION_HF=  0.000000000000000    
!EMBED_AORB=  0.000000000000000    
!EMBED_NACORR=  0.000000000000000    
!EMBED_MP2=FALSE
!EMBED_TRUNC_PERTURBATION=FALSE
!EMBED_FROZEN=  0.000000000000000    
!EMBED_ACTIVE=  0.000000000000000    
_CHANGE_BASIS=FALSE
_RESTORE_BASIS=FALSE
_FIX_EMBED_GUESS=FALSE
_EMBED_SCF=FALSE
_HUZINAGA_T=FALSE
_HUZINAGA_F=FALSE
_HUZINAGA=FALSE
_HUZINAGA_CORRECT=FALSE
!FASTLATGRAD=  1.000000000000000    
!FASTVLAMBDA= -1.000000000000000    
!IFORCE= -1.000000000000000    
!USESYM= -1.000000000000000    
_SINDEX=  0.000000000000000    
_AVDOM_OSV=  0.000000000000000    
_AVDOM_PNO=  0.000000000000000    
_AVDOM_PAO=  0.000000000000000    
_AVDOM_LMO=  0.000000000000000    
_CC2OSV_FLAG=  0.000000000000000    
_EOMCCSD_CONV=FALSE
_TMADC2_FLAG=FALSE
_PROPADC2_FLAG=FALSE
_LEN_VirQ=  0.000000000000000    
_GRDCC2LR_FLAG=FALSE
_GRDADC2_FLAG=FALSE
_RO_VGLOBAL=  0.000000000000000    
_OPT=FALSE
_FREQ=FALSE
_HESS=FALSE
_CMRCC_callName=EMPTY
_CMRCC_callCount=  0.000000000000000    
_GECCO_CIROOT=  1.000000000000000    
_SYM_CATION=  1.000000000000000    
_MON_A=FALSE
_MON_B=FALSE
GX1= 0.1452544088106916E-04
GY1=  1.000468678507817    
GZ1=  1.095892451745854    
GX2=-0.2486418437215459E-07
GY2=-0.1301893513037467E-01
GZ2= 0.7171646752257845    
GX3= 0.8845726454131614    
GY3=-0.5199984153295930    
GZ3=  1.098209308116448    
GX4=-0.8845864383090103    
GY4=-0.5199736585469364    
GZ4=  1.098210377265663    
GX5=-0.1163708747966166E-07
GY5= 0.6299386614941692E-01
GZ5=-0.6800175634562098    
GX6=-0.2518024635049012E-06
GY6=-0.8052404818396072    
GZ6= -1.039099899693936    
HX1= 0.2744910510466830E-04
HY1=  1.890611798646043    
HZ1=  2.070936595844326    
CX2=-0.4698649877082786E-07
CY2=-0.2460222183067723E-01
CZ2=  1.355244822432921    
HX3=  1.671600037166579    
HY3=-0.9826545902123335    
HZ3=  2.075314819854844    
HX4= -1.671626101962199    
HY4=-0.9826078066733857    
HZ4=  2.075316840254046    
OX5=-0.2199090822012763E-07
OY5= 0.1190411545537321    
OZ5= -1.285046954867562    
HX6=-0.4758376935255943E-06
HY6= -1.521683975138549    
HZ6= -1.963614226547649    
[Atoms] Angs
H     1    1         0.0000145254        1.0004686785        1.0958924517
C     2    6        -0.0000000249       -0.0130189351        0.7171646752
H     3    1         0.8845726454       -0.5199984153        1.0982093081
H     4    1        -0.8845864383       -0.5199736585        1.0982103773
O     5    8        -0.0000000116        0.0629938661       -0.6800175635
H     6    1        -0.0000002518       -0.8052404818       -1.0390998997
[GTO]
   1 0
 s    3  1.00
  0.3386500000D+02  0.2549381454D-01
  0.5094790000D+01  0.1903731086D+00
  0.1158790000D+01  0.8521614860D+00
 s    1  1.00
  0.3258400000D+00  0.1000000000D+01
 s    1  1.00
  0.1027410000D+00  0.1000000000D+01
 p    1  1.00
  0.7500000000D+00  0.1000000000D+01
  
   2 0
 s    6  1.00
  0.4563240000D+04  0.1966650249D-02
  0.6820240000D+03  0.1523060193D-01
  0.1549730000D+03  0.7612690966D-01
  0.4445530000D+02  0.2608010331D+00
  0.1302900000D+02  0.6164620782D+00
  0.1827730000D+01  0.2210060280D+00
 s    3  1.00
  0.2096420000D+02  0.1146600807D+00
  0.4803310000D+01  0.9199996477D+00
  0.1459330000D+01 -0.3030682134D-02
 s    1  1.00
  0.4834560000D+00  0.1000000000D+01
 s    1  1.00
  0.1455850000D+00  0.1000000000D+01
 p    3  1.00
  0.2096420000D+02  0.4024869267D-01
  0.4803310000D+01  0.2375939567D+00
  0.1459330000D+01  0.8158538515D+00
 p    1  1.00
  0.4834560000D+00  0.1000000000D+01
 p    1  1.00
  0.1455850000D+00  0.1000000000D+01
 d    1  1.00
  0.6260000000D+00  0.1000000000D+01
  
   3 0
 s    3  1.00
  0.3386500000D+02  0.2549381454D-01
  0.5094790000D+01  0.1903731086D+00
  0.1158790000D+01  0.8521614860D+00
 s    1  1.00
  0.3258400000D+00  0.1000000000D+01
 s    1  1.00
  0.1027410000D+00  0.1000000000D+01
 p    1  1.00
  0.7500000000D+00  0.1000000000D+01
  
   4 0
 s    3  1.00
  0.3386500000D+02  0.2549381454D-01
  0.5094790000D+01  0.1903731086D+00
  0.1158790000D+01  0.8521614860D+00
 s    1  1.00
  0.3258400000D+00  0.1000000000D+01
 s    1  1.00
  0.1027410000D+00  0.1000000000D+01
 p    1  1.00
  0.7500000000D+00  0.1000000000D+01
  
   5 0
 s    6  1.00
  0.8588500000D+04  0.1895150083D-02
  0.1297230000D+04  0.1438590063D-01
  0.2992960000D+03  0.7073200310D-01
  0.8737710000D+02  0.2400010105D+00
  0.2567890000D+02  0.5947970261D+00
  0.3740040000D+01  0.2808020123D+00
 s    3  1.00
  0.4211750000D+02  0.1138890124D+00
  0.9628370000D+01  0.9208111006D+00
  0.2853320000D+01 -0.3274470358D-02
 s    1  1.00
  0.9056610000D+00  0.1000000000D+01
 s    1  1.00
  0.2556110000D+00  0.1000000000D+01
 p    3  1.00
  0.4211750000D+02  0.3651139738D-01
  0.9628370000D+01  0.2371529830D+00
  0.2853320000D+01  0.8197019412D+00
 p    1  1.00
  0.9056610000D+00  0.1000000000D+01
 p    1  1.00
  0.2556110000D+00  0.1000000000D+01
 d    1  1.00
  0.1292000000D+01  0.1000000000D+01
  
   6 0
 s    3  1.00
  0.3386500000D+02  0.2549381454D-01
  0.5094790000D+01  0.1903731086D+00
  0.1158790000D+01  0.8521614860D+00
 s    1  1.00
  0.3258400000D+00  0.1000000000D+01
 s    1  1.00
  0.1027410000D+00  0.1000000000D+01
 p    1  1.00
  0.7500000000D+00  0.1000000000D+01


[MO]
 Sym=      1.1
 Ene=     -20.5412
 Spin= Alpha
 Occup=    2.000000
1 0.000030166380942
2 -0.000133256270443
3 -0.000051367839933
4 -0.000000000144742
5 -0.000013107110202
6 -0.000001581045319
7 -0.000002532740914
8 -0.000033145385728
9 0.000095644126200
10 0.000571915792496
11 0.000000000117568
12 0.000016619702601
13 -0.000029205929608
14 -0.000000000611984
15 -0.000038557841649
16 -0.000262696664903
17 0.000000001011769
18 0.000147446959795
19 -0.000208081956783
20 -0.000052500229888
21 -0.000080111210224
22 0.000132611440112
23 -0.000000000007236
24 -0.000000000104743
25 0.000021493378361
26 0.000009945539210
27 -0.000065827072694
28 -0.000003806416706
29 -0.000014844784813
30 -0.000012554438656
31 0.000027131813065
32 0.000009945357799
33 -0.000065828166371
34 -0.000003805863666
35 0.000014844214733
36 -0.000012555047826
37 0.000027131514456
38 0.55143951310830
39 0.47166569871127
40 0.005655008513817
41 -0.000842500279388
42 -0.000000001171460
43 -0.001503443623808
44 0.000928274932883
45 0.000000000540287
46 0.000553902753192
47 -0.000332457076682
48 -0.000000000299195
49 -0.000134364285078
50 -0.000183579513977
51 0.000149427437993
52 -0.000009892769014
53 -0.000139534668980
54 -0.000000000141300
55 0.000000000017412
56 -0.000035925513715
57 0.000213419343247
58 0.000076603755973
59 0.000069114930142
60 -0.000000000032838
61 0.000041661161984
62 0.000082128252224
 Sym=      2.1
 Ene=     -11.2657
 Spin= Alpha
 Occup=    2.000000
1 0.000346327170660
2 0.000042904890426
3 0.000287255456781
4 0.000000000639453
5 0.000043534223884
6 -0.000025762003986
7 0.56343777848086
8 0.46655721490054
9 0.004145158163222
10 -0.001243921330433
11 0.000000000563867
12 -0.000036261112370
13 -0.000950206325291
14 0.000000000333058
15 0.000034755245737
16 0.000755510862239
17 -0.000000000121558
18 -0.000029787859860
19 -0.000137039256113
20 0.000112452182218
21 0.000164913108733
22 -0.000277365290951
23 0.000000000725014
24 -0.000000000036740
25 0.000034726523929
26 0.000349906417889
27 0.000074325836816
28 0.000260317605576
29 0.000020401430132
30 -0.000011714263828
31 -0.000033956699026
32 0.000349906307945
33 0.000074325683600
34 0.000260317901782
35 -0.000020401832772
36 -0.000011713807664
37 -0.000033956624493
38 -0.000073384747544
39 -0.000132236177037
40 0.000311321143817
41 0.000337848427112
42 0.000000000000026
43 -0.000015586674747
44 0.000110177521725
45 -0.000000000045745
46 -0.000011095299509
47 0.000560311283306
48 -0.000000000073282
49 -0.000015650781638
50 0.000142281857927
51 -0.000102110802806
52 -0.000122210600329
53 0.000224321403135
54 -0.000000000002226
55 -0.000000000069980
56 -0.000049121845467
57 -0.000010412846346
58 0.000032476473025
59 -0.000030932137410
60 0.000000000040862
61 0.000046727755856
62 0.000023211275883
 Sym=      3.1
 Ene=      -1.3621
 Spin= Alpha
 Occup=    2.000000
1 0.014944620565069
2 0.031507870628119
3 0.001177989113879
4 -0.000000110946466
5 -0.007649716839451
6 -0.003629662531706
7 -0.037715598825260
8 -0.061593595390219
9 0.15339972488435
10 0.001990918271211
11 0.000000007018838
12 0.000358416702924
13 -0.041233680977793
14 0.000000015195121
15 -0.000444763378544
16 -0.081137961381620
17 -0.000000030793362
18 -0.004615733569920
19 0.004178413624824
20 -0.014444246288257
21 -0.013792921706527
22 0.028237167994784
23 -0.000000006761158
24 0.000000005585575
25 0.000176268410401
26 0.014898611633322
27 0.029744316209422
28 -0.000744486743335
29 -0.006537927854466
30 0.003926020265244
31 -0.003956919938581
32 0.014898583004198
33 0.029744302120247
34 -0.000744494641556
35 0.006538037874316
36 0.003925841595162
37 -0.003956927359163
38 -0.10952616358642
39 -0.18293326608974
40 0.51822384632818
41 0.38876090154376
42 -0.000000004442299
43 -0.029142911220989
44 0.019824323305031
45 -0.000000012495623
46 -0.049454872528547
47 0.036459530103231
48 0.000000003268602
49 -0.017061934203898
50 0.028590496531852
51 -0.008039612609201
52 0.003031094258237
53 0.005008518350964
54 0.000000003076745
55 -0.000000000155110
56 0.001874668293822
57 0.091531407920738
58 0.074847998040868
59 -0.001117769754606
60 0.000000003227519
61 0.023203019204296
62 0.012838581625032
 Sym=      4.1
 Ene=      -0.9267
 Spin= Alpha
 Occup=    2.000000
1 0.087003684668466
2 0.12461017458697
3 0.007358813588384
4 -0.000000288398495
5 -0.019938910872337
6 -0.005076837855817
7 -0.094371956020868
8 -0.15677463187621
9 0.40793247979309
10 0.24066517917072
11 0.000000055752673
12 0.005867977142101
13 0.028940792766539
14 0.000000086969469
15 0.009637452665172
16 0.024471232198258
17 -0.000000058320442
18 -0.006352453198458
19 0.023955431078312
20 -0.000637951298792
21 0.001838566101201
22 -0.001200614802409
23 0.000000020780809
24 0.000000000641816
25 -0.001965250728638
26 0.082508689444301
27 0.11493865659564
28 0.003691075329706
29 -0.016293353816913
30 0.009846431204306
31 -0.005397388518317
32 0.082508705525025
33 0.11493865835413
34 0.003691023020970
35 0.016293633817158
36 0.009845984597622
37 -0.005397390040058
38 0.031045682587546
39 0.052179641975711
40 -0.15063071430351
41 -0.14338444909942
42 0.000000026109349
43 0.035019899499926
44 0.084198597847456
45 0.000000038547301
46 0.056379748820666
47 0.13406515121014
48 0.000000037369338
49 0.021464320659883
50 0.073107491390086
51 -0.000984726243529
52 -0.010756864948130
53 0.011741591191659
54 -0.000000004356736
55 -0.000000000154521
56 -0.006791207655540
57 -0.075923845167663
58 -0.088772730398788
59 -0.013277909002104
60 0.000000000681924
61 -0.016791668339272
62 -0.002380103980153
 Sym=      5.1
 Ene=      -0.6945
 Spin= Alpha
 Occup=    2.000000
1 0.023872060232517
2 0.026143037289336
3 0.009301368230739
4 -0.000000071329569
5 -0.000415247622482
6 -0.002640835878390
7 0.012865554900239
8 0.020879753154732
9 -0.049429461517882
10 -0.066701145092962
11 -0.000000011760928
12 0.086769217995783
13 -0.085071942458956
14 -0.000000005952622
15 0.14498229695889
16 -0.14527624624189
17 0.000000196152932
18 0.085595577420594
19 -0.054995787313310
20 -0.024010394838114
21 -0.004057927674439
22 0.028068322512552
23 0.000000512189785
24 0.000000015960533
25 -0.010947968227742
26 -0.068036658985951
27 -0.091156698160256
28 -0.023750710729778
29 0.008396782402753
30 -0.000587159431544
31 -0.000765343071947
32 -0.068035179494148
33 -0.091154538573992
34 -0.023749911732577
35 -0.008396703809478
36 -0.000586823177420
37 -0.000765416657234
38 -0.022045447704754
39 -0.037546933742743
40 0.11512637826610
41 0.16773729576239
42 0.000000009807636
43 0.16786422340849
44 0.095561296634381
45 0.000000020253621
46 0.25756974350063
47 0.15056663239667
48 -0.000000039826556
49 0.17258236439381
50 0.087074458154284
51 0.004981566521544
52 -0.019530824567420
53 0.014549258045876
54 -0.000000007285393
55 -0.000000006583916
56 -0.001211889144671
57 -0.13540213743797
58 -0.20223473789138
59 -0.037059096459038
60 -0.000000009713504
61 -0.023768153106601
62 -0.013145470554145
 Sym=      6.1
 Ene=      -0.6209
 Spin= Alpha
 Occup=    2.000000
1 0.000001615115406
2 0.000002260389729
3 0.000000679200732
4 0.008984571319046
5 -0.000000271965054
6 -0.000000053164292
7 0.000000034261385
8 0.000000058681409
9 -0.000000156483538
10 -0.000000305076220
11 0.16231703507419
12 -0.000000104109430
13 -0.000000174490772
14 0.26309743804970
15 -0.000000158397437
16 -0.000000315784774
17 0.14791989281524
18 0.000000212490339
19 -0.000000179169083
20 -0.000000818177132
21 0.000000791680102
22 0.000000026497030
23 -0.023065907881788
24 -0.001729913022011
25 0.000000026606349
26 0.10842935915711
27 0.16121903701328
28 0.064065370651911
29 -0.007135003354843
30 0.008360386689394
31 -0.004651810501954
32 -0.10843110570447
33 -0.16122128051795
34 -0.064066063877431
35 -0.007135455966940
36 -0.008360093820273
37 0.004651827321378
38 0.000000013876352
39 0.000000023780435
40 -0.000000069271688
41 -0.000000141252117
42 0.15617802117301
43 -0.000000060967384
44 0.000000154007817
45 0.24350506214545
46 -0.000000077221759
47 0.000000228848338
48 0.21096214851329
49 -0.000000119694609
50 0.000000190676067
51 -0.000000014321109
52 0.000000002649020
53 0.000000011672090
54 -0.008111473482282
55 0.012058044186939
56 -0.000000017676422
57 -0.000000050526848
58 -0.000000005261075
59 -0.000000023033078
60 0.016756841362737
61 -0.000000015454477
62 0.000000041676472
 Sym=      7.1
 Ene=      -0.5957
 Spin= Alpha
 Occup=    2.000000
1 -0.12733571751412
2 -0.17494676465230
3 -0.062138365197634
4 0.000000231700070
5 0.010920358966301
6 -0.000760941534674
7 -0.000113219390766
8 -0.000964181551031
9 0.005831748036922
10 -0.021327365893110
11 -0.000000202857431
12 -0.11015394525834
13 -0.12224610558851
14 -0.000000319759175
15 -0.17951601434578
16 -0.21488281461130
17 -0.000000455825533
18 -0.13162910498221
19 -0.098632157869538
20 -0.005611630592803
21 -0.033459770356792
22 0.039071400949595
23 -0.000000703704853
24 -0.000000003193696
25 -0.004364043527171
26 0.006275672564328
27 0.008335165551955
28 0.002423260112940
29 -0.002291981530934
30 -0.003569878920481
31 -0.005221295177408
32 0.006273701498587
33 0.008332224380831
34 0.002421904324758
35 0.002291755978394
36 -0.003570066287328
37 -0.005221193751187
38 0.014449986221817
39 0.024486276735268
40 -0.073885489427606
41 -0.11015524720978
42 -0.000000213997174
43 -0.065664521190737
44 0.17369249096412
45 -0.000000341977538
46 -0.10076405622317
47 0.26857491031865
48 -0.000000249516813
49 -0.091512711736686
50 0.21653785486221
51 -0.006506559047241
52 -0.004347718677680
53 0.010854277724921
54 0.000000002873491
55 -0.000000021265082
56 -0.017670768883225
57 -0.028391636659391
58 -0.032141360112910
59 -0.039779067554594
60 -0.000000014859745
61 -0.010425531348632
62 0.017574918783492
 Sym=      8.1
 Ene=      -0.4979
 Spin= Alpha
 Occup=    2.000000
1 -0.11489173652450
2 -0.22069406946794
3 -0.081005735691168
4 0.000000340639065
5 0.013965453787143
6 0.009579776859921
7 0.004836023302690
8 0.008385127310321
9 -0.026142457801989
10 0.018256316454319
11 -0.000000006062469
12 -0.13776555950046
13 0.041987416575078
14 -0.000000027159091
15 -0.21247346307775
16 0.078027337536813
17 0.000000027814166
18 -0.11308164652629
19 0.013697931655702
20 0.023606281136516
21 -0.009415936004930
22 -0.014190345131586
23 -0.000000807192122
24 -0.000000013872376
25 -0.031159512542944
26 0.072699094755275
27 0.12275779289301
28 0.064124911592067
29 -0.010036284733246
30 -0.004862123473678
31 -0.001173796353395
32 0.072696015424814
33 0.12275209847840
34 0.064122481655604
35 0.010035913734661
36 -0.004862662354936
37 -0.001173618372434
38 -0.024951074068988
39 -0.042442808682236
40 0.12836751884259
41 0.22129608524254
42 -0.000000086125417
43 0.16954778917849
44 -0.083148331331615
45 -0.000000136986881
46 0.25153106233188
47 -0.12384916071546
48 -0.000000138610948
49 0.23539737144921
50 -0.14540176588389
51 0.010241823863279
52 -0.009737393016213
53 -0.000504430847065
54 -0.000000029487383
55 -0.000000003136138
56 0.000821938538612
57 -0.082392658205324
58 -0.15535272626275
59 -0.030102271282894
60 0.000000016890461
61 -0.009985451806022
62 -0.020409331363740
 Sym=      9.1
 Ene=      -0.4449
 Spin= Alpha
 Occup=    2.000000
1 -0.000001595479174
2 -0.000003189998321
3 -0.000001470470190
4 -0.008382534553186
5 0.000000310036878
6 0.000000095682710
7 -0.000000006414775
8 -0.000000011842650
9 0.000000047323589
10 -0.000000005052304
11 -0.10594309656449
12 -0.000000104125792
13 0.000000024842468
14 -0.16203419885235
15 -0.000000164514114
16 0.000000075498684
17 -0.083939321535486
18 -0.000000002061413
19 0.000000026901011
20 0.000000558564668
21 -0.000000575080425
22 0.000000016515757
23 0.016567746487331
24 -0.038110348975776
25 -0.000000023555406
26 -0.094897718668569
27 -0.19202397721891
28 -0.083694601830003
29 0.007101833272272
30 -0.008194563026204
31 0.005684175360886
32 0.094899263246497
33 0.19202705869826
34 0.083696095483763
35 0.007102336560674
36 0.008194235284839
37 -0.005684269926462
38 -0.000000023097500
39 -0.000000039060087
40 0.000000098953610
41 0.000000423769762
42 0.24720867972460
43 -0.000000026777743
44 0.000000019165066
45 0.37137721426861
46 -0.000000063025248
47 0.000000029607323
48 0.41427092001359
49 -0.000000220700182
50 -0.000000013334859
51 0.000000012278677
52 -0.000000012771954
53 0.000000000493277
54 -0.010878227811102
55 0.003376585888756
56 -0.000000007484398
57 -0.000000065270190
58 -0.000000420402985
59 -0.000000046007239
60 0.026693681432535
61 -0.000000039910761
62 -0.000000060650403
 Sym=     10.1
 Ene=       0.1555
 Spin= Alpha
 Occup=    0.000000
1 0.001799848433528
2 0.048812866226356
3 0.45029101880732
4 -0.000000080364021
5 -0.005574483936961
6 -0.008880975132734
7 0.030135810576317
8 0.047957355663053
9 -0.015984794971502
10 -1.74076009994315
11 -0.000000345427850
12 0.021147209123343
13 -0.060163385878201
14 -0.000000210544549
15 0.015102397039707
16 -0.062371924135631
17 -0.000002838621243
18 0.15959939466476
19 -0.23575962202499
20 0.005193901954299
21 0.002958810059017
22 -0.008152712013316
23 -0.000000138706173
24 0.000000018725703
25 -0.006550571046287
26 0.002714473127516
27 0.013623073129149
28 0.80725112073825
29 0.000401783159421
30 -0.001791642558150
31 -0.006692648029823
32 0.002714394435338
33 0.013623885294074
34 0.80723854612328
35 -0.000401617837627
36 -0.001791514768703
37 -0.006692717182775
38 0.019247331084202
39 0.032104236839360
40 -0.081438672029848
41 -0.33777606867061
42 0.000000078584118
43 0.045825022530024
44 0.032581384397501
45 0.000000063449984
46 0.063793075135025
47 0.025152613289863
48 0.000000455960160
49 0.11746086786928
50 0.21991439515409
51 0.000583824568802
52 -0.002263989485352
53 0.001680164916551
54 -0.000000017349099
55 -0.000000015390126
56 0.001082227867594
57 0.027791246048151
58 -0.10529765233912
59 0.91890390519839
60 0.000000010578070
61 -0.010113510936847
62 -0.009267139759956
 Sym=     11.1
 Ene=       0.1900
 Spin= Alpha
 Occup=    0.000000
1 -0.012867341781247
2 0.078758830068664
3 -1.10886154577036
4 -0.000000120830476
5 -0.008294776484735
6 -0.009121837539444
7 -0.035089327980881
8 -0.056925196652840
9 0.083085533044053
10 1.23763336382842
11 -0.000000478215632
12 0.027525746292931
13 0.008261531848042
14 -0.000000273223790
15 0.013953123407816
16 -0.019002692463089
17 -0.000003461187999
18 0.28630875024948
19 0.17781488634524
20 0.001149507844888
21 0.003218070877262
22 -0.004367578722150
23 -0.000000122959256
24 0.000000048907176
25 -0.006430887671394
26 -0.011714038588139
27 0.076885439814979
28 -0.56304769582245
29 -0.003565663514421
30 -0.001940937436498
31 -0.007893617262735
32 -0.011714227004485
33 0.076886079250102
34 -0.56306642664212
35 0.003565892036354
36 -0.001940877068306
37 -0.007893709016201
38 0.023156141605325
39 0.038234653587591
40 -0.079520834250323
41 -0.57836386465217
42 0.000000135477060
43 0.059215630187923
44 -0.002290938529625
45 0.000000121305340
46 0.083317345040899
47 -0.027184604716834
48 0.000000699313566
49 0.18891333742619
50 0.043629775346551
51 0.000872801038628
52 -0.005552660388455
53 0.004679859349827
54 -0.000000029575544
55 -0.000000022671872
56 0.003306502990836
57 0.037295800620563
58 -0.091069105038959
59 1.23885275875224
60 0.000000052094688
61 -0.000639596632510
62 -0.010681396374903
 Sym=     12.1
 Ene=       0.2265
 Spin= Alpha
 Occup=    0.000000
1 -0.000000036290270
2 -0.000000935077007
3 0.000002184019994
4 -0.004002754540689