
 Working directory              : /tmp/zwa/molpro.uX9TO2DyN1/
 Global scratch directory       : /tmp/zwa/molpro.uX9TO2DyN1/
 Wavefunction directory         : /home/zwa/wfu/
 Main file repository           : /tmp/zwa/molpro.uX9TO2DyN1/

 id        : liedlgroup

 Nodes     nprocs
 rh2-c724     6
 GA implementation: MPI file
 GA implementation (serial work in mppx): MPI file

 Using customized tuning parameters: mindgm=1; mindgv=20; mindgc=4; mindgr=1; noblas=0; minvec=7
 default implementation of scratch files=sf  


 Variables initialized (1015), CPU time= 0.01 sec
 memory,1000,m
 orient,mass
 geometry = {
  O,                 -2.37974678 ,   3.40506324 ,   0.00000000
  H,                 -1.41974678 ,   3.40506324 ,   0.00000000
  H,                 -2.70020136 ,   4.30999907 ,   0.00000000
 }
 mass,iso
 basis=6-311g(d,p)
 {hf
 start,atden}
 
 optg
 {frequencies, symm=auto,print=0,analytical}
 put,molden,h2o.molden
 Commands initialized (834), CPU time= 0.01 sec, 672 directives.
 Default parameters read. Elapsed time= 0.09 sec

 Checking input...
 Passed
1


                                         ***  PROGRAM SYSTEM MOLPRO  ***
                                       Copyright, TTI GmbH Stuttgart, 2015
                                    Version 2022.2 linked Thu Sep 29 12:37:28 2022


 **********************************************************************************************************************************
 LABEL *                                                                                 
  (8 PROC) 64 bit mpp version                                                            DATE: 21-Aug-25          TIME: 12:44:44  
 **********************************************************************************************************************************

 SHA1:             51306cdc306ce2a111a2867affebcb289530e0a7
 **********************************************************************************************************************************

 Memory per process:      1000 MW
 Total memory per node:   6000 MW

 GA preallocation disabled
 GA check disabled

 Variable memory set to 1000.0 MW

 ZCENTRE=MASS


 Geometry recognized as XYZ



 Using masses of most abundant isotopes

 **********************************************************************************************************************************
 SETTING BASIS          =    6-311G(D,P)


 Recomputing integrals since basis changed


 Using spherical harmonics

 Library entry O      S 6-311G               selected for orbital group  1
 Library entry O      P 6-311G               selected for orbital group  1
 Library entry O      D 6-311G*              selected for orbital group  1
 Library entry H      S 6-311G               selected for orbital group  2
 Library entry H      P 6-311G**             selected for orbital group  2


 PROGRAM * SEWARD (Integral evaluation for generally contracted gaussian basis sets)     Author: Roland Lindh, 1990

 Geometry written to block  1 of record 700

 Orientation using atomic masses  
 Molecule type: Asymmetric top,     Order of principal axis = 2
 Symmetry elements: X,Y
 Rotational constants:     282.5913843    919.6760006    407.9403386 GHz

 Point group  C2v 



 ATOMIC COORDINATES

 NR  ATOM    CHARGE       X              Y              Z

   1  O       8.00    0.000000000    0.000000000   -0.117177192
   2  H       1.00    0.000000000    1.481499721    0.929843299
   3  H       1.00    0.000000000   -1.481499721    0.929843299

 Bond lengths in Bohr (Angstrom)

 1-2  1.814137077  1-3  1.814137077
     ( 0.959999999)     ( 0.959999999)

 Bond angles

  2-1-3  109.49999976

 NUCLEAR CHARGE:                   10
 NUMBER OF PRIMITIVE AOS:          48
 NUMBER OF SYMMETRY AOS:           47
 NUMBER OF CONTRACTIONS:           30   (   14A1  +    5B1  +    9B2  +    2A2  )
 NUMBER OF INNER CORE ORBITALS:     0   (    0A1  +    0B1  +    0B2  +    0A2  )
 NUMBER OF OUTER CORE ORBITALS:     1   (    1A1  +    0B1  +    0B2  +    0A2  )
 NUMBER OF VALENCE ORBITALS:        6   (    3A1  +    1B1  +    2B2  +    0A2  )


 NUCLEAR REPULSION ENERGY    9.15711604

 Eigenvalues of metric

         1 0.189E-01 0.900E-01 0.114E+00 0.151E+00 0.288E+00 0.441E+00 0.590E+00 0.833E+00
         2 0.215E+00 0.457E+00 0.912E+00 0.118E+01 0.228E+01
         3 0.399E-01 0.994E-01 0.122E+00 0.402E+00 0.562E+00 0.835E+00 0.125E+01 0.156E+01
         4 0.646E+00 0.132E+01


 Contracted 2-electron integrals neglected if value below      1.0D-11
 AO integral compression algorithm  1   Integral accuracy      1.0D-11

     1.573 MB (compressed) written to integral file (100.0%)

     Node minimum: 0.262 MB, node maximum: 0.262 MB


 NUMBER OF SORTED TWO-ELECTRON INTEGRALS:       4884.     BUFFER LENGTH:  32768
 NUMBER OF SEGMENTS:   1  SEGMENT LENGTH:       4884      RECORD LENGTH: 524288

 Memory used in sort:       0.56 MW

 SORT1 READ       47172. AND WROTE        4541. INTEGRALS IN      1 RECORDS. CPU TIME:     0.01 SEC, REAL TIME:     0.01 SEC
 SORT2 READ       30106. AND WROTE       32916. INTEGRALS IN      6 RECORDS. CPU TIME:     0.00 SEC, REAL TIME:     0.00 SEC

 Node minimum:        4832.  Node maximum:        6144. integrals

 OPERATOR DM      FOR CENTER  0  COORDINATES:    0.000000    0.000000    0.000000


 **********************************************************************************************************************************
 DATASETS  * FILE   NREC   LENGTH (MB)   RECORD NAMES
              1      18       28.60       500      610      700      900      950      970     1000      129      960     1100   
                                          VAR    BASINP    GEOM    SYMINP    ZMAT    AOBASIS   BASIS     P2S    ABASIS      S 
                                         1400     1410     1200     1210     1080     1600     1650     1700   
                                           T        V       H0       H01     AOSYM     SMH    MOLCAS    OPER   

 PROGRAMS   *        TOTAL       INT
 CPU TIMES  *         0.55      0.41
 REAL TIME  *         0.86 SEC
 DISK USED  *        28.89 MB (local),      197.57 MB (total)
 GA USED    *         0.00 MB       (max)       0.00 MB       (current)
 **********************************************************************************************************************************


 Program * Restricted Hartree-Fock

 Orbital guess generated from atomic densities.

 Initial occupancy:   3   1   1   0

 NELEC=   10   SYM=1   MS2= 0   THRE=1.0D-08   THRD=1.0D-06   THRG=1.0D-06  HFMA2=F  DIIS_START=2   DIIS_MAX=10   DIIS_INCORE=F

 Level shifts:    0.00 (CLOSED)    0.00 (OPEN)    0.30 (GAP_MIN)

 ITER           ETOT              DE          GRAD        DDIFF     DIIS  NEXP   TIME(IT)  TIME(TOT)  DIAG
   1      -76.00714630     -76.00714630     0.00D+00     0.15D+00     0     0       0.00      0.01    start
   2      -76.03628294      -0.02913663     0.33D-01     0.23D-01     1     0       0.00      0.01    diag
   3      -76.04544799      -0.00916505     0.18D-01     0.79D-02     2     0       0.00      0.01    diag
   4      -76.04565661      -0.00020862     0.19D-02     0.16D-02     3     0       0.00      0.01    diag
   5      -76.04567625      -0.00001964     0.51D-03     0.65D-03     4     0       0.00      0.01    diag
   6      -76.04567696      -0.00000071     0.85D-04     0.13D-03     5     0       0.00      0.01    diag
   7      -76.04567698      -0.00000002     0.15D-04     0.21D-04     6     0       0.01      0.02    diag
   8      -76.04567698      -0.00000000     0.21D-05     0.27D-05     7     0       0.00      0.02    fixocc
   9      -76.04567698      -0.00000000     0.39D-06     0.48D-06     8     0       0.00      0.02    diag
  10      -76.04567698      -0.00000000     0.90D-07     0.95D-07     0     0       0.00      0.02    diag/orth

 Final occupancy:   3   1   1   0

 !RHF STATE 1.1 Energy                -76.045676984554
  RHF One-electron energy            -123.103209673131
  RHF Two-electron energy              37.900416648371
  RHF Kinetic energy                   76.040621292866
  RHF Nuclear energy                    9.157116040206
  RHF Virial quotient                  -1.000066486723

 !RHF STATE 1.1 Dipole moment           0.00000000     0.00000000     0.82250013
 Dipole moment /Debye                   0.00000000     0.00000000     2.09058680

 Orbital energies:

           1.1          2.1          3.1          4.1          5.1
    -20.542429    -1.335968    -0.561211     0.150997     0.596347

           1.2          2.2          3.2
     -0.497601     1.004855     1.742865

           1.3          2.3          3.3
     -0.713979     0.216037     0.575900

           1.4          2.4
      1.498937     3.567344


 HOMO      1.2    -0.497601 =     -13.5404eV
 LUMO      4.1     0.150997 =       4.1088eV
 LUMO-HOMO         0.648598 =      17.6492eV

 Orbitals saved in record  2100.2


 **********************************************************************************************************************************
 DATASETS  * FILE   NREC   LENGTH (MB)   RECORD NAMES
              1      18       28.60       500      610      700      900      950      970     1000      129      960     1100   
                                          VAR    BASINP    GEOM    SYMINP    ZMAT    AOBASIS   BASIS     P2S    ABASIS      S 
                                         1400     1410     1200     1210     1080     1600     1650     1700   
                                           T        V       H0       H01     AOSYM     SMH    MOLCAS    OPER   

              2       4        0.38       700     1000      520     2100   
                                         GEOM     BASIS   MCVARS     RHF  

 PROGRAMS   *        TOTAL    HF-SCF       INT
 CPU TIMES  *         0.57      0.02      0.41
 REAL TIME  *         0.88 SEC
 DISK USED  *        29.04 MB (local),      198.52 MB (total)
 GA USED    *         0.00 MB       (max)       0.00 MB       (current)
 **********************************************************************************************************************************


 PROGRAM * OPT (Geometry optimization)     Authors: F. Eckert and H.-J. Werner


 BFGS update of hessian

 *** Long output written to logfile /home/zwa/Overlap_Integral_Project/overlap_integral_gaussian/h20cal/h2ohf/h2o.log ***


 Geometry optimization using default procedure for command HF-SCF

 Geometry written to block  1 of record 700

 Making model hessian for cartesian coordinates

 Entering Rational Function Geometry Optimization

 ITER.   ENERGY(OLD)    ENERGY(NEW)      DE          GRADMAX     GRADNORM    GRADRMS     STEPMAX     STEPLEN     STEPRMS   CPU-time
   1   -76.04567698   -76.04698210    -0.00130512  0.03181310  0.03706035  0.01235345  0.07697033  0.08095578  0.04673984      0.55
