[Molden Format]
[Molpro variables]
_NUMVAR=  1031.000000000000    
_AVOGAD= 0.6022140760000000E+24
_BOLTZ= 0.1380649000000000E-22
_CLIGHTSI=  299792458.0000000    
_JOULE= 0.4359744722207100E-17
_JPCAL=  4.184000000000000    
_PLANCK= 0.6626070150000000E-33
_BOHR= 0.5291772109030000E-10
_ECHARG= 0.1602176634000000E-18
_ENULL= 0.8854187812800001E-11
_MU= 0.1660539066600000E-26
_EMASS= 0.9109383701500001E-30
_AMU2AU=  1822.888486217313    
_CLIGHT=  29979245800.00000    
_EV= 0.3674932217565494E-01
_KJOULE= 0.3808798847133432E-03
_KJOULE/MOL= 0.3808798847133432E-03
_CM= 0.4556335252912009E-05
_CM-1= 0.4556335252912009E-05
_DEB2SI= 0.3335640951981520E-29
_KCAL= 0.1593601437640628E-02
_KCAL/MOL= 0.1593601437640628E-02
_KELVIN= 0.3166811563455608E-05
_HERTZ= 0.1519829846057038E-15
_HZ= 0.1519829846057038E-15
_TOA= 0.5291772109030000    
_TOANG= 0.5291772109030000    
_TORAD= 0.1745329251994330E-01
_TOCM=  219474.6313631965    
_TODEBYE=  2.541746473194078    
_TOE= 0.4803204712570263E-09
_TOEV=  27.21138624598803    
_TOHERTZ=  6579683920501656.    
_TOHZ=  6579683920501656.    
_TOK=  315775.0248040668    
_TOKCAL=  627.5094740630558    
_TOKELVIN=  315775.0248040668    
_TOKJ=  2625.499639479825    
_TOKJOULE=  2625.499639479825    
_TOKG= 0.1660539066600000E-26
_ANG=  1.889726124625770    
_ANGSTROM=  1.889726124625770    
_RPAREF=  0.000000000000000    
_RPADISS=  0.000000000000000    
_IGNORE_UNDEF=  2.000000000000000    
_STRICTCHECK=  0.000000000000000    
!SEWARD=  0.000000000000000    
!MULTI=  0.000000000000000    
!DFMULTI=  0.000000000000000    
_SEW_ONEEL=  0.000000000000000    
_CPPDONE=FALSE
_DKROLL_DONE=  0.000000000000000    
_FNUC_DONE=  0.000000000000000    
_FOCKDONE=TRUE
_GRADONE=FALSE
_HESSDONE=TRUE
_INTDONE=TRUE
_SCFDONE=TRUE
_MODUL_BLOCK=FALSE
_MODUL_CUDA=FALSE
_MODUL_SLATER=FALSE
_MODUL_MRCC=FALSE
_MODUL_NBO6=FALSE
_MODUL_NECI=FALSE
_MODUL_AIMS=TRUE
_MODUL_GECCO=FALSE
_ISWINDOWS=FALSE
_MRCC_EXEC=
_FITC_AO_SAVED=FALSE
_FITC_MO_SAVED=FALSE
_SHARED_FS=TRUE
_LSTYP=SEWARD
_INTYP=INTS
_GEOMTYP=ZMAT
_GRADTYP=ALASKA
_DIRECT=FALSE
_DKHO= -1.000000000000000    
_FNUC=  0.000000000000000    
_SYNCM=  0.000000000000000    
_BASIS=6-311G(D,P)
_ZCENTRE=MASS
_ZORIENT=  1.000000000000000    
_NELEC=  10.00000000000000    
!SPIN=  0.000000000000000    
_OPTCONV= 0.5222664888882229E-03
_QSDSTEP=  0.000000000000000    
_QSDIRC=  0.000000000000000    
_PROGRAM=FREQ
_CPUSTEP= 0.9100000000000001    
_SYSSTEP= 0.2000000000000002E-01
_WALLSTEP= 0.4000000000000000    
!DFSCF=  0.000000000000000    
!SCSGRD=  0.000000000000000    
_CPUTOT=  4.080000000000000    
_DFTEXFAC=  1.000000000000000    
_DMX=  0.000000000000000    
_DMY=  0.000000000000000    
_DMZ= 0.8410292820557442    
_DMX_SCF=  0.000000000000000    
_DMY_SCF=  0.000000000000000    
_DMZ_SCF= 0.8410292820557442    
_FREQUENCIES= 0.7669863571040123E-04
_HOMO=  1.200000000000000    
_EHOMO=-0.5006662377637354    
_LUMO=  4.100000000000000    
_ELUMO= 0.1525987356798609    
_ENERGY= -76.04701202778179    
_ENERGY_METHOD=HF
_ENERGY_BASIS=6-311G(D,P)
_GEOMETRY_METHOD=HF
_GEOMETRY_BASIS=6-311G(D,P)
_ENUC=  9.351280340976594    
_GRADENERG= -76.04701197005988    
_GRADEXFAC=  9999.000000000000    
_GRADMETHOD=  1.000000000000000    
_NMRMETHOD=  0.000000000000000    
_NMRMAGNET=  0.000000000000000    
_VIRIAL=-0.4398730808921945E-03
!GRID_FREEZE= -1.000000000000000    
!NEESE_INDEX=  0.000000000000000    
_ITERATIONS=  2.000000000000000    
_LASTNELEC=  10.00000000000000    
_LASTSPIN=  0.000000000000000    
_LASTSYM=  1.000000000000000    
_MPP_PROG=  1.000000000000000    
_MSNSTATES=  0.000000000000000    
_RS2PHASE=  0.000000000000000    
_IPROC_MPP=  0.000000000000000    
_IPROC_MPPX=  0.000000000000000    
_NPROC_MPP=  6.000000000000000    
_NPROC_MPPX=  6.000000000000000    
_NPROC_SMP=  8.000000000000000    
_NUMSTEP=  0.000000000000000    
_OPTCONVMX= 0.4219947504409127E-03
_OPTCONVRMS= 0.3015306979483768E-03
_OPTGRAD= 0.3028020959342675E-03
_OPTGRADMX= 0.2974071835112536E-03
_OPTGRADRMS= 0.1009340319780892E-03
_OPTSTEP=  4.000000000000000    
_ORBITAL=  2100.200000000000    
_PI=  3.141592653589793    
_SEIG_MIN= 0.1696960542302185E-01
_SEWPROP=TRUE
_STATUS=  1.000000000000000    
_SYSTOT= 0.7000000000000000    
_VERSION=  2022002.000000000    
_WALLTOT=  3.470000000000000    
_ZPE= 0.2307881241629944E-01
_DATE=21-Aug-25
_LASTORB=0
_OUTPUT=/home/zwa/Overlap_Integral_Project/overlap_integral_gaussian/h20cal/h2ohf/h2o.out
_PGROUP=C2v
_TIME=12:44:50
_LIBMOL=/usr/local/molpro/molpro_2022.2.3_sockets/lib/
_VIGRDC=  0.000000000000000    
!VIBCNT=  0.000000000000000    
!RGHFCNT=  0.000000000000000    
!SURFREC=  0.000000000000000    
!XSURFREC=  0.000000000000000    
!XPOLYREC=  0.000000000000000    
!ROTREC=  0.000000000000000    
!POLYREC=  0.000000000000000    
!DIPREC=  0.000000000000000    
!DIP4DREC=  0.000000000000000    
!DIPROT=  0.000000000000000    
!DIP4DROT=  0.000000000000000    
!PTREC=  0.000000000000000    
!PT4DREC=  0.000000000000000    
!VSCFREC=  0.000000000000000    
!VCIREC=  0.000000000000000    
!PVCIREC=  0.000000000000000    
!VMP2REC=  0.000000000000000    
!VMCSCFREC=  0.000000000000000    
!VMRCIREC=  0.000000000000000    
!VIBSTATEREC=  0.000000000000000    
!VIBSTATECNT=  0.000000000000000    
!VIBINFO=  0.000000000000000    
!GAREC=  0.000000000000000    
!SCFORB=  21002.00000000000    
!DEFCORE=  1.000000000000000    
!SCORE=  0.000000000000000    
!NEWMOL=  0.000000000000000    
!NEWSYM=  0.000000000000000    
_SLFILES=slscratch
_NGSSTO=  9.000000000000000    
_SIN=SIN
_COS=COS
_TAN=TAN
_ACOS=ACOS
_ASIN=ASIN
_ATAN=ATAN
_COSH=COSH
_SINH=SINH
_TANH=TANH
_ABS=ABS
_MOD=MOD
_ERF=ERF
_REFC=REFC
_ERFC=ERFC
_HYPOT=HYPOT
_J0=J0
_J1=J1
_JN=JN
_GAMMA=GAMMA
_LGAMMA=LGAMMA
_Y0=Y0
_Y1=Y1
_YN=YN
_EXP=EXP
_LOG=LOG
_LOG10=LOG10
_SQRT=SQRT
_INT=INT
_NINT=NINT
_MAX=MAX
_MIN=MIN
_COSMO=  0.000000000000000    
_COSMOIT=  0.000000000000000    
_COSMOES=  0.000000000000000    
_COSMOEDS=  0.000000000000000    
_COSMOEC=  0.000000000000000    
_COSMOEDCORR=  0.000000000000000    
_FEPSI=  1.000000000000000    
_SL_IsMM=  0.000000000000000    
_SL_NSYM=  4.000000000000000    
_SL_System_BitSw=  0.000000000000000    
_SL_Unique_atoms=  0.000000000000000    
_SL_GRAD=  0.000000000000000    
_SL_MAXUPD_Hess=  5.000000000000000    
_SL_N_PRINT_COD=  5.000000000000000    
_SL_PRINT_CODES=  0.000000000000000    
_SL_BasType=  0.000000000000000    
_SL_Energy_Pred=  0.000000000000000    
_SL_New_Coords=  0.000000000000000    
_SL_Total_Nuclea=  0.000000000000000    
_SL_Highest_Mltp=  0.000000000000000    
_SL_Ref_Geom=  0.000000000000000    
_SL_Symmetry_ope=  1.000000000000000    
_SL_agrad=  0.000000000000000    
_SL_GrdMax=  0.000000000000000    
_SL_GrdNorm=  0.000000000000000    
_SL_GrdRMS=  0.000000000000000    
_SL_Hss_Q=  0.000000000000000    
_SL_Hss_X=  0.000000000000000    
_SL_BMxOld=  0.000000000000000    
_SL_KtB=  0.000000000000000    
_SL_TROld=  0.000000000000000    
_SL_No_of_Intern=  0.000000000000000    
_SL_Hess=  0.000000000000000    
_SL_K=  0.000000000000000    
!LATTICE= -1.000000000000000    
!NEWLATTICE=  0.000000000000000    
!LATGRAD_VAR=FALSE
!SEW_LATTICE=  1.000000000000000    
!AIC_ONEEL=  0.000000000000000    
!LOCAL=  0.000000000000000    
!SAVEDOM= -1.000000000000000    
!RESTDOM= -1.000000000000000    
!SAVEDOM_HF= -1.000000000000000    
!RESTDOM_HF= -1.000000000000000    
!HESSREC=  5300.200000000000    
!FREQREC=  5400.200000000000    
!NMODREC=  5450.200000000000    
!GTASKS=  0.000000000000000    
!HTASKS=  0.000000000000000    
!SAVEDOM_EOM= -1.000000000000000    
!RESTDOM_EOM= -1.000000000000000    
!GRADSTATE= -1.000000000000000    
!DEBUG=  0.000000000000000    
!CFIT_CPHF=  0.000000000000000    
!RDOMAUX_CPHF=  0.000000000000000    
!THRAO_CPHF= 0.1000000000000000E-11
!THRMO_CPHF= 0.1000000000000000E-11
!THROV_CPHF= 0.1000000000000000E-11
!THRSW_CPHF= 0.1000000000000000E-11
!THRPROD_CPHF= 0.1000000000000000E-11
!THRAOPR_CPHF= 0.1000000000000000E-11
!CFIT_SCFGRD=  0.000000000000000    
!RDOMAUX_SCFGRD=  0.000000000000000    
!THRAO_SCFGRD= 0.1000000000000000E-11
!THRMO_SCFGRD= 0.1000000000000000E-11
!THROV_SCFGRD= 0.1000000000000000E-11
!THRSW_SCFGRD= 0.1000000000000000E-11
!THRPROD_SCFGRD= 0.1000000000000000E-11
!THRAOPR_SCFGRD= 0.1000000000000000E-11
!LOCFIT_SCF=  0.000000000000000    
!LOCFIT_MP2=  0.000000000000000    
_RIDOM=  0.000000000000000    
!CC2_METHOD=  0.000000000000000    
_BASIS2006=FALSE
_SVDDEL= -1.000000000000000    
_SVDDELA= -1.000000000000000    
_SVDDELP= -1.000000000000000    
_SVDDELF= -1.000000000000000    
_SVDDELS= -1.000000000000000    
_SVDDEL_ABS= -1.000000000000000    
_SVDDELA_ABS= -1.000000000000000    
_SVDDELP_ABS= -1.000000000000000    
_SVDDELF_ABS= -1.000000000000000    
_SVDDELS_ABS= -1.000000000000000    
_MAXBASIS=  0.000000000000000    
!OPT_CONICAL=  0.000000000000000    
!CLEARSP_JGRID=  0.000000000000000    
_GRDHYBR=  0.000000000000000    
_STATEGRAD=  1.000000000000000    
_4EXT_NDISKS=  1.000000000000000    
!EMBEDFLAG=  1.000000000000000    
!EMBED=FALSE
!EMBED_F12=FALSE
!EMBEDNUC=  0.000000000000000    
_EMBEDENERGY=  0.000000000000000    
!EMBED_DFC=FALSE
!NUM_VOIDS=  0.000000000000000    
_IBODY=  0.000000000000000    
_EMBE_CORR=  0.000000000000000    
!EMBED_PROJ=FALSE
!EMB_PROJ_ZMU=  1000000.000000000    
!CORRECTION_HF=  0.000000000000000    
!EMBED_AORB=  0.000000000000000    
!EMBED_NACORR=  0.000000000000000    
!EMBED_MP2=FALSE
!EMBED_TRUNC_PERTURBATION=FALSE
!EMBED_FROZEN=  0.000000000000000    
!EMBED_ACTIVE=  0.000000000000000    
_CHANGE_BASIS=FALSE
_RESTORE_BASIS=FALSE
_FIX_EMBED_GUESS=FALSE
_EMBED_SCF=FALSE
_HUZINAGA_T=FALSE
_HUZINAGA_F=FALSE
_HUZINAGA=FALSE
_HUZINAGA_CORRECT=FALSE
!FASTLATGRAD=  1.000000000000000    
!FASTVLAMBDA= -1.000000000000000    
!IFORCE= -1.000000000000000    
!USESYM= -1.000000000000000    
_SINDEX=  0.000000000000000    
_AVDOM_OSV=  0.000000000000000    
_AVDOM_PNO=  0.000000000000000    
_AVDOM_PAO=  0.000000000000000    
_AVDOM_LMO=  0.000000000000000    
_CC2OSV_FLAG=  0.000000000000000    
_EOMCCSD_CONV=FALSE
_TMADC2_FLAG=FALSE
_PROPADC2_FLAG=FALSE
_LEN_VirQ=  0.000000000000000    
_GRDCC2LR_FLAG=FALSE
_GRDADC2_FLAG=FALSE
_RO_VGLOBAL=  0.000000000000000    
_OPT=FALSE
_FREQ=FALSE
_HESS=FALSE
_CMRCC_callName=EMPTY
_CMRCC_callCount=  0.000000000000000    
_GECCO_CIROOT=  1.000000000000000    
_SYM_CATION=  2.000000000000000    
_MON_A=FALSE
_MON_B=FALSE
GX1=  0.000000000000000    
GY1=  0.000000000000000    
GZ1=-0.6377121587896876E-01
GX2=  0.000000000000000    
GY2= 0.7488255891470542    
GZ2= 0.5060476067644067    
GX3=  0.000000000000000    
GY3=-0.7488255891470542    
GZ3= 0.5060476067644067    
OX1=  0.000000000000000    
OY1=  0.000000000000000    
OZ1=-0.1205101326456370    
HX2=  0.000000000000000    
HY2=  1.415075278599472    
HZ2= 0.9562913828070481    
HX3=  0.000000000000000    
HY3= -1.415075278599472    
HZ3= 0.9562913828070481    
[Atoms] Angs
O     1    8         0.0000000000        0.0000000000       -0.0637712159
H     2    1         0.0000000000        0.7488255891        0.5060476068
H     3    1         0.0000000000       -0.7488255891        0.5060476068
[GTO]
   1 0
 s    6  1.00
  0.8588500000D+04  0.1895150083D-02
  0.1297230000D+04  0.1438590063D-01
  0.2992960000D+03  0.7073200310D-01
  0.8737710000D+02  0.2400010105D+00
  0.2567890000D+02  0.5947970261D+00
  0.3740040000D+01  0.2808020123D+00
 s    3  1.00
  0.4211750000D+02  0.1138890124D+00
  0.9628370000D+01  0.9208111006D+00
  0.2853320000D+01 -0.3274470358D-02
 s    1  1.00
  0.9056610000D+00  0.1000000000D+01
 s    1  1.00
  0.2556110000D+00  0.1000000000D+01
 p    3  1.00
  0.4211750000D+02  0.3651139738D-01
  0.9628370000D+01  0.2371529830D+00
  0.2853320000D+01  0.8197019412D+00
 p    1  1.00
  0.9056610000D+00  0.1000000000D+01
 p    1  1.00
  0.2556110000D+00  0.1000000000D+01
 d    1  1.00
  0.1292000000D+01  0.1000000000D+01
  
   2 0
 s    3  1.00
  0.3386500000D+02  0.2549381454D-01
  0.5094790000D+01  0.1903731086D+00
  0.1158790000D+01  0.8521614860D+00
 s    1  1.00
  0.3258400000D+00  0.1000000000D+01
 s    1  1.00
  0.1027410000D+00  0.1000000000D+01
 p    1  1.00
  0.7500000000D+00  0.1000000000D+01
  
   3 0
 s    3  1.00
  0.3386500000D+02  0.2549381454D-01
  0.5094790000D+01  0.1903731086D+00
  0.1158790000D+01  0.8521614860D+00
 s    1  1.00
  0.3258400000D+00  0.1000000000D+01
 s    1  1.00
  0.1027410000D+00  0.1000000000D+01
 p    1  1.00
  0.7500000000D+00  0.1000000000D+01


[MO]
 Sym=      1.1
 Ene=     -20.5413
 Spin= Alpha
 Occup=    2.000000
1 0.55142989301648
2 0.47167849783763
3 0.005566602615635
4 -0.000465163631167
5 0.0
6 0.0
7 0.001785223058657
8 0.0
9 0.0
10 -0.000617652438091
11 0.0
12 0.0
13 0.000094627415622
14 0.000115378725598
15 -0.000097568861186
16 -0.000017809864412
17 0.0
18 0.0
19 0.0
20 0.000208611808278
21 0.000083189033928
22 0.000098883392408
23 0.0
24 -0.000070287124749
25 -0.000010887061033
26 0.000208611808278
27 0.000083189033928
28 0.000098883392408
29 0.0
30 0.000070287124749
31 -0.000010887061033
 Sym=      2.1
 Ene=      -1.3491
 Spin= Alpha
 Occup=    2.000000
1 -0.11335953699771
2 -0.18935715669877
3 0.53787732941139
4 0.37190449900808
5 0.0
6 0.0
7 0.038031320660757
8 0.0
9 0.0
10 0.063144985140723
11 0.0
12 0.0
13 0.020779467138201
14 -0.008344512389746
15 0.005582207130509
16 0.002762305259237
17 0.0
18 0.0
19 0.0
20 0.096562583467162
21 0.081307893525141
22 -0.002674935951667
23 0.0
24 -0.023857739955741
25 -0.014411970693259
26 0.096562583467162
27 0.081307893525141
28 -0.002674935951667
29 0.0
30 0.023857739955741
31 -0.014411970693259
 Sym=      1.3
 Ene=      -0.7172
 Spin= Alpha
 Occup=    2.000000
1 0.0
2 0.0
3 0.0
4 0.0
5 0.0
6 0.22737907878875
7 0.0
8 0.0
9 0.34886179148382
10 0.0
11 0.0
12 0.21178437947958
13 0.0
14 0.0
15 0.0
16 0.0
17 0.0
18 0.0
19 0.029327237887953
20 0.15126545188415
21 0.21225550148774
22 0.054487581096194
23 0.0
24 -0.018707168441761
25 -0.025671005421138
26 -0.15126545188415
27 -0.21225550148774
28 -0.054487581096194
29 0.0
30 -0.018707168441761
31 0.025671005421138
 Sym=      3.1
 Ene=      -0.5729
 Spin= Alpha
 Occup=    2.000000
1 0.038140109094010
2 0.064860225932022
3 -0.19645684660546
4 -0.33484881149103
5 0.0
6 0.0
7 0.25569172164374
8 0.0
9 0.0
10 0.37818681194831
11 0.0
12 0.0
13 0.33999177161087
14 -0.012876259781461
15 -0.004108848000503
16 0.016985107781964
17 0.0
18 0.0
19 0.0
20 0.087465352530933
21 0.14600267101814
22 0.027263565773281
23 0.0
24 -0.029719116818836
25 0.009565637068622
26 0.087465352530933
27 0.14600267101814
28 0.027263565773281
29 0.0
30 0.029719116818836
31 0.009565637068622
 Sym=      1.2
 Ene=      -0.5007
 Spin= Alpha
 Occup=    2.000000
1 0.0
2 0.0
3 0.0
4 0.0
5 0.29169578162748
6 0.0
7 0.0
8 0.43668228698296
9 0.0
10 0.0
11 0.46587790863913
12 0.0
13 0.0
14 0.0
15 0.0
16 0.0
17 0.0
18 0.017140438439694
19 0.0
20 0.0
21 0.0
22 0.0
23 0.031532235061968
24 0.0
25 0.0
26 0.0
27 0.0
28 0.0
29 0.031532235061968
30 0.0
31 0.0
 Sym=      4.1
 Ene=       0.1526
 Spin= Alpha
 Occup=    0.000000
1 0.033502767517914
2 0.054636195183131
3 -0.10269997732320
4 -0.85277746277510
5 0.0
6 0.0
7 -0.071584846865377
8 0.0
9 0.0
10 -0.11395101538807
11 0.0
12 0.0
13 -0.19992338429074
14 0.005458389492969
15 -0.000897649820781
16 -0.004560739672188
17 0.0
18 0.0
19 0.0
20 0.034136676766797
21 -0.068275474738767
22 0.84442403343210
23 0.0
24 0.005125127857149
25 -0.003810137920703
26 0.034136676766797
27 -0.068275474738767
28 0.84442403343210
29 0.0
30 -0.005125127857149
31 -0.003810137920703
 Sym=      2.3
 Ene=       0.2186
 Spin= Alpha
 Occup=    0.000000
1 0.0
2 0.0
3 0.0
4 0.0
5 0.0
6 -0.12023559324368
7 0.0
8 0.0
9 -0.12746364268680
10 0.0
11 0.0
12 -0.49546848876836
13 0.0
14 0.0
15 0.0
16 0.0
17 0.0
18 0.0
19 -0.005536343369752
20 0.023623964476544
21 -0.13011046964926
22 1.58003301195515
23 0.0
24 0.008852268372143
25 0.008184801991223
26 -0.023623964476544
27 0.13011046964926
28 -1.58003301195515
29 0.0
30 0.008852268372143
31 -0.008184801991223
 Sym=      3.3
 Ene=       0.5772
 Spin= Alpha
 Occup=    0.000000
1 0.0
2 0.0
3 0.0
4 0.0
5 0.0
6 -0.12034086063397
7 0.0
8 0.0
9 -0.18575147153161
10 0.0
11 0.0
12 -1.17096305057032
13 0.0
14 0.0
15 0.0
16 0.0
17 0.0
18 0.0
19 0.013019123265166
20 0.079808532278278
21 1.48644295779704
22 -0.72178520861969
23 0.0
24 -0.026218327493328
25 0.002722956189782
26 -0.079808532278278
27 -1.48644295779704
28 0.72178520861969
29 0.0
30 -0.026218327493328
31 -0.002722956189782
 Sym=      5.1
 Ene=       0.6207
 Spin= Alpha
 Occup=    0.000000
1 0.033596404042756
2 0.059028171249017
3 -0.13501015443433
4 -1.48864417912994
5 0.0
6 0.0
7 -0.096016832748196
8 0.0
9 0.0
10 -0.18558744579513
11 0.0
12 0.0
13 -1.08845343409580
14 -0.001401340987193
15 0.012669338794886
16 -0.011267997807693
17 0.0
18 0.0
19 0.0
20 0.062656078350718
21 1.85072125317521
22 -0.60057563423445
23 0.0
24 -0.036897946496416
25 -0.044616754869312
26 0.062656078350718
27 1.85072125317521
28 -0.60057563423445
29 0.0
30 0.036897946496416
31 -0.044616754869312
 Sym=      6.1
 Ene=       0.9975
 Spin= Alpha
 Occup=    0.000000
1 -0.012908044294270
2 -0.024137212381135
3 0.046479475771690
4 0.95096050699478
5 0.0
6 0.0
7 -0.23503526442375
8 0.0
9 0.0
10 -0.73590206621896
11 0.0
12 0.0
13 1.56770221435860
14 -0.013062681195089
15 0.017642480362660
16 -0.004579799167571
17 0.0
18 0.0
19 0.0
20 -0.033765205890287
21 -0.57477487057937
22 -0.11535556768765
23 0.0
24 0.15198472389157
25 0.099405025753298
26 -0.033765205890287
27 -0.57477487057937
28 -0.11535556768765
29 0.0
30 -0.15198472389157
31 0.099405025753298
 Sym=      2.2
 Ene=       1.0031
 Spin= Alpha
 Occup=    0.000000
1 0.0
2 0.0
3 0.0
4 0.0
5 -0.23940064873508
6 0.0
7 0.0
8 -0.83600700133167
9 0.0
10 0.0
11 1.15633091563123
12 0.0
13 0.0
14 0.0
15 0.0
16 0.0
17 0.0
18 -0.008395934578923
19 0.0
20 0.0
21 0.0
22 0.0
23 -0.027705937171511
24 0.0
25 0.0
26 0.0
27 0.0
28 0.0
29 -0.027705937171511
30 0.0
31 0.0
 Sym=      4.3
 Ene=       1.1114
 Spin= Alpha
 Occup=    0.000000
1 0.0
2 0.0
3 0.0
4 0.0
5 0.0
6 -0.24104373890460
7 0.0
8 0.0
9 -0.70500322997190
10 0.0
11 0.0
12 1.80249095865638
13 0.0
14 0.0
15 0.0
16 0.0
17 0.0
18 0.0
19 0.031834560773501
20 -0.019633770697942
21 -0.34715710102278
22 -0.80113432733617
23 0.0
24 0.17438946736261
25 0.14573698042442
26 0.019633770697942
27 0.34715710102278
28 0.80113432733617
29 0.0
30 0.17438946736261
31 -0.14573698042442
 Sym=      7.1
 Ene=       1.3105
 Spin= Alpha
 Occup=    0.000000
1 0.099742137162313
2 0.20421056230748
3 -1.48624425413416
4 3.19029369799381
5 0.0
6 0.0
7 -0.028033555812872
8 0.0
9 0.0
10 0.17804709547373
11 0.0
12 0.0
13 0.58781040434818
14 -0.035644119125977
15 0.007509386327258
16 0.028134732798719
17 0.0
18 0.0
19 0.0
20 0.008823143507110
21 -0.88716049395394
22 -0.35674439724486
23 0.0
24 0.18388161874689
25 0.36902267260118
26 0.008823143507110
27 -0.88716049395394
28 -0.35674439724486
29 0.0
30 -0.18388161874689
31 0.36902267260118
 Sym=      8.1
 Ene=       1.4982
 Spin= Alpha
 Occup=    0.000000
1 -0.033436837337043
2 -0.069325645564580
3 0.58498093092006
4 -2.05780751274687
5 0.0
6 0.0
7 -0.014848581974104
8 0.0
9 0.0
10 -0.12068406102129
11 0.0
12 0.0
13 -1.24349567256131
14 -0.008601898741397
15 -0.10786014390119
16 0.11646204264259
17 0.0
18 0.0
19 0.0
20 -0.084222925314741
21 1.20386971607889
22 -0.029170667771244
23 0.0
24 -0.59810059927777
25 0.42787794742853
26 -0.084222925314741
27 1.20386971607889
28 -0.029170667771244
29 0.0
30 0.59810059927777
31 0.42787794742853
 Sym=      1.4
 Ene=       1.5159
 Spin= Alpha
 Occup=    0.000000
1 0.0
2 0.0
3 0.0
4 0.0
5 0.0
6 0.0
7 0.0
8 0.0
9 0.0
10 0.0
11 0.0
12 0.0
13 0.0
14 0.0
15 0.0
16 0.0
17 0.12196125697307
18 0.0
19 0.0
20 0.0
21 0.0
22 0.0
23 0.68970721177177
24 0.0
25 0.0
26 0.0
27 0.0
28 0.0
29 -0.68970721177177
30 0.0
31 0.0
 Sym=      3.2
 Ene=       1.7269
 Spin= Alpha
 Occup=    0.000000
1 0.0
2 0.0
3 0.0
4 0.0
5 -0.052895707614852
6 0.0
7 0.0
8 -0.075166021562342
9 0.0
10 0.0
11 -0.55154591535461
12 0.0
13 0.0
14 0.0
15 0.0
16 0.0
17 0.0
18 0.14547252666970
19 0.0
20 0.0
21 0.0
22 0.0
23 0.77200356608871
24 0.0
25 0.0
26 0.0
27 0.0
28 0.0
29 0.77200356608871
30 0.0
31 0.0
 Sym=      5.3
 Ene=       1.9304
 Spin= Alpha
 Occup=    0.000000
1 0.0
2 0.0
3 0.0
4 0.0
5 0.0
6 0.015158954781170
7 0.0
8 0.0
9 0.027439915768789
10 0.0
11 0.0
12 -0.94917596201528
13 0.0
14 0.0
15 0.0
16 0.0
17 0.0
18 0.0
19 -0.079138448904750
20 -0.19090995602739
21 0.78720698636460
22 -0.16050091283496
23 0.0
24 0.48082203617016
25 -0.65140244314428
26 0.19090995602739
27 -0.78720698636460
28 0.16050091283496
29 0.0
30 0.48082203617016
31 0.65140244314428
 Sym=      6.3
 Ene=       2.2775
 Spin= Alpha
 Occup=    0.000000
1 0.0
2 0.0
3 0.0
4 0.0
5 0.0
6 -0.17652915916074
7 0.0
8 0.0
9 -0.46802235919508
10 0.0
11 0.0
12 0.027122841706293
13 0.0
14 0.0
15 0.0
16 0.0
17 0.0
18 0.0
19 0.25259640920790
20 0.71315254773183
21 -0.74249276396359
22 0.54210960168436
23 0.0
24 -0.24920975694311
25 -0.46723905271639
26 -0.71315254773183
27 0.74249276396359
28 -0.54210960168436
29 0.0
30 -0.24920975694311
31 0.46723905271639
 Sym=      9.1
 Ene=       2.3979
 Spin= Alpha
 Occup=    0.000000
1 0.024145677908072
2 0.042089231215117
3 -0.14352304354372
4 0.41808893643748
5 0.0
6 0.0
7 -0.16064787699610
8 0.0
9 0.0
10 -0.15931418319364
11 0.0
12 0.0
13 0.32975209761116
14 -0.29203666461739
15 0.21558732135875
16 0.076449343258637
17 0.0
18 0.0
19 0.0
20 0.94232368692026
21 -1.34183734354793
22 0.43146924503793
23 0.0
24 -0.17345320447255
25 -0.033163469319327
26 0.94232368692026
27 -1.34183734354793
28 0.43146924503793
29 0.0
30 0.17345320447255
31 -0.033163469319327
 Sym=     10.1
 Ene=       2.6102
 Spin= Alpha
 Occup=    0.000000
1 -0.060073617583273
2 -0.14044320180231
3 1.00828714461787
4 1.83750077320234
5 0.0
6 0.0
7 0.039618033422896
8 0.0
9 0.0
10 0.72087291706307
11 0.0
12 0.0
13 0.73333190732108
14 0.051514482845714
15 -0.004265812917343
16 -0.047248669928371
17 0.0
18 0.0
19 0.0
20 0.43166996261306
21 -1.90342285797287
22 0.21676420051132
23 0.0
24 0.96209319722624
25 0.67890101984290
26 0.43166996261306
27 -1.90342285797287
28 0.21676420051132
29 0.0
30 -0.96209319722624
31 0.67890101984290
 Sym=      7.3
 Ene=       2.7685
 Spin= Alpha
 Occup=    0.000000
1 0.0
2 0.0
3 0.0
4 0.0
5 0.0
6 -0.015072503548618
7 0.0
8 0.0
9 -0.97024622148766
10 0.0
11 0.0
12 -0.73230590437767
13 0.0
14 0.0
15 0.0
16 0.0
17 0.0
18 0.0
19 -0.23827581652584
20 -0.72892184803003
21 2.13095554759229
22 -0.50209756685190
23 0.0
24 -0.95024454871065
25 -0.68788942112298
26 0.72892184803003
27 -2.13095554759229
28 0.50209756685190
29 0.0
30 -0.95024454871065
31 0.68788942112298
 Sym=      4.2
 Ene=       3.5053
 Spin= Alpha
 Occup=    0.000000
1 0.0
2 0.0
3 0.0
4 0.0
5 0.023843983336550
6 0.0
7 0.0
8 -0.009419985224964
9 0.0
10 0.0
11 0.27523023195969
12 0.0
13 0.0
14 0.0
15 0.0
16 0.0
17 0.0
18 1.03733692066903
19 0.0
20 0.0
21 0.0
22 0.0
23 -0.36683814834682
24 0.0
25 0.0
26 0.0
27 0.0
28 0.0
29 -0.36683814834682
30 0.0
31 0.0
 Sym=      2.4
 Ene=       3.5721
 Spin= Alpha
 Occup=    0.000000
1 0.0
2 0.0
3 0.0
4 0.0
5 0.0
6 0.0
7 0.0
8 0.0
9 0.0
10 0.0
11 0.0
12 0.0
13 0.0
14 0.0
15 0.0
16 0.0
17 1.06006479472061
18 0.0
19 0.0
20 0.0
21 0.0
22 0.0
23 -0.35117592661432
24 0.0
25 0.0
26 0.0
27 0.0
28 0.0
29 0.35117592661432
30 0.0
31 0.0
 Sym=     11.1
 Ene=       3.7381
 Spin= Alpha
 Occup=    0.000000
1 -0.002617644111917
2 -0.005333894588966
3 -0.029349612085789
4 0.86145808162616
5 0.0
6 0.0
7 0.059059199917039
8 0.0
9 0.0
10 0.050536703071582
11 0.0
12 0.0
13 0.67660841760977
14 -0.47285300907831
15 -0.61061937510461
16 1.08347238418292
17 0.0
18 0.0
19 0.0
20 -0.027083017155982
21 -0.57234027956733
22 0.028385176420232
23 0.0
24 0.42412937847178
25 -0.23274588751381
26 -0.027083017155982
27 -0.57234027956733
28 0.028385176420232
29 0.0
30 -0.42412937847178
31 -0.23274588751381
 Sym=     12.1
 Ene=       4.0353
 Spin= Alpha
 Occup=    0.000000
1 0.024613687838135
2 0.049670153723202
3 -0.18782944903905
4 -2.00080323831450
5 0.0
6 0.0
7 -0.31727570842012
8 0.0
9 0.0
10 -0.13208423855055
11 0.0
12 0.0
13 -0.89592397095686
14 0.99799102856531
15 -0.94979574971511
16 -0.048195278850200
17 0.0
18 0.0
19 0.0
20 0.35224866708562
21 1.03748030104006
22 0.059507135626834
23 0.0
24 -0.56005845963515
25 -0.48259667525727
26 0.35224866708562
27 1.03748030104006
28 0.059507135626834
29 0.0
30 0.56005845963515
31 -0.48259667525727
 Sym=      8.3
 Ene=       4.2823
 Spin= Alpha
 Occup=    0.000000
1 0.0
2 0.0
3 0.0
4 0.0
5 0.0
6 0.46764963388686
7 0.0
8 0.0
9 -0.028052038052810
10 0.0
11 0.0
12 0.92184888144923
13 0.0
14 0.0
15 0.0
16 0.0
17 0.0
18 0.0
19 1.14893944486389
20 -0.44147743114473
21 -0.48386939827770
22 -0.24465249392275
23 0.0
24 0.46732013397457
25 0.33994901243334
26 0.44147743114473
27 0.48386939827770
28 0.24465249392275
29 0.0
30 0.46732013397457
31 -0.33994901243334
 Sym=      5.2
 Ene=       5.3305
 Spin= Alpha
 Occup=    0.000000
1 0.0
2 0.0
3 0.0
4 0.0
5 1.27075925777380
6 0.0
7 0.0
8 -1.37564984885573
9 0.0
10 0.0
11 0.47597940911711
12 0.0
13 0.0
14 0.0
15 0.0
16 0.0
17 0.0
18 -0.033345502923279
19 0.0
20 0.0
21 0.0
22 0.0
23 0.065955693263498
24 0.0
25 0.0
26 0.0
27 0.0
28 0.0
29 0.065955693263498
30 0.0
31 0.0
 Sym=     13.1
 Ene=       5.7620
 Spin= Alpha
 Occup=    0.000000
1 0.024084727323975
2 0.045614682497775
3 -0.26313785933653
4 -1.05995207729981
5 0.0
6 0.0
7 1.25924845760545
8 0.0
9 0.0
10 -1.73379597994373
11 0.0
12 0.0
13 0.078068691420363
14 0.37370858778594
15 -0.27604872133079
16 -0.097659866455149
17 0.0
18 0.0
19 0.0
20 0.30701903114747
21 0.52193497579870
22 0.014886509981417
23 0.0
24 -0.48404216798067
25 -0.26710681397910
26 0.30701903114747
27 0.52193497579870
28 0.014886509981417
29 0.0
30 0.48404216798067
31 -0.26710681397910
 Sym=      9.3
 Ene=       6.2580
 Spin= Alpha
 Occup=    0.000000
1 0.0
2 0.0
3 0.0
4 0.0
5 0.0
6 -1.25457958801995
7 0.0
8 0.0
9 2.05654202214625
10 0.0
11 0.0
12 -0.13086046798454
13 0.0
14 0.0
15 0.0
16 0.0
17 0.0
18 0.0
19 0.67850268157312
20 -0.39809663042794
21 -0.51208365447751
22 0.14557804974188
23 0.0
24 0.54698620535364
25 0.47657335333934
26 0.39809663042794
27 0.51208365447751
28 -0.14557804974188
29 0.0
30 0.54698620535364
31 -0.47657335333934
 Sym=     14.1
 Ene=      51.5750
 Spin= Alpha
 Occup=    0.000000
1 -2.24731788784841
2 2.33737785470006
3 -0.27406503053143
4 0.056461750682148
5 0.0
6 0.0
7 0.019340044680631
8 0.0
9 0.0
10 -0.077190118603315
11 0.0
12 0.0
13 -0.015742045627097
14 0.026082170475955
15 -0.022712252371332
16 -0.003369918104623
17 0.0
18 0.0
19 0.0
20 0.008747288639614
21 0.077727384985918
22 -0.031125736875348
23 0.0
24 -0.065696679004055
25 -0.048153024056579
26 0.008747288639614
27 0.077727384985918
28 -0.031125736875348
29 0.0
30 0.065696679004055
31 -0.048153024056579
 [FREQ]
      0.00
      0.00
      0.00
      0.00
      0.00
      0.00
   1750.94
   4142.11
   4237.38
 [FR-COORD]
O          0.0000000000        0.0000000000       -0.1205101326
H          0.0000000000        1.4150752786        0.9562913828
H          0.0000000000       -1.4150752786        0.9562913828
 [FR-NORM-COORD]
 Vibration                    1
         -0.00000000          0.05091084          0.20466555
         -0.29040473         -0.04370104          0.32899944
          0.28889336         -0.04370104          0.08033165
 Vibration                    2
          0.00000000          0.16977122         -0.07176944
         -0.32716891          0.29323605         -0.23402036
          0.33330338          0.29323605          0.09048147
 Vibration                    3
          0.00000000          0.01215757          0.00499889
          0.75038221          0.00666646          0.01221501
          0.65282226          0.00666646         -0.00221722
 Vibration                    4
          0.25003978         -0.00000000         -0.00000000
         -0.00000000         -0.00000000         -0.00000000
         -0.00000000         -0.00000000          0.00000000
 Vibration                    5
         -0.00000000         -0.14357543         -0.05188319
         -0.47775564         -0.09663807         -0.11356577
          0.60202564         -0.09663807          0.00979939
 Vibration                    6
         -0.00000000         -0.07565225          0.07594267
          0.09765981          0.32843553         -0.45508800
         -0.09525475          0.32843553          0.60697333
 Vibration                    7
         -0.00000000          0.00000000         -0.06772091
         -0.00000000         -0.41344587          0.53738986
          0.00000000          0.41344587          0.53738986
 Vibration                    8
          0.00000000          0.00000000         -0.04909975
         -0.00000000          0.57024590          0.38962422
          0.00000000         -0.57024590          0.38962422
 Vibration                    9
          0.00000000         -0.06797599          0.00000000
          0.00000000          0.53941400          0.41046707
          0.00000000          0.53941400         -0.41046707
