
 Working directory              : /tmp/zwa/molpro.3O4jNuWt4n/
 Global scratch directory       : /tmp/zwa/molpro.3O4jNuWt4n/
 Wavefunction directory         : /home/zwa/wfu/
 Main file repository           : /tmp/zwa/molpro.3O4jNuWt4n/

 id        : liedlgroup

 Nodes     nprocs
 rh2-c724     6
 GA implementation: MPI file
 GA implementation (serial work in mppx): MPI file

 Using customized tuning parameters: mindgm=1; mindgv=20; mindgc=4; mindgr=1; noblas=0; minvec=7
 default implementation of scratch files=sf  


 Variables initialized (1015), CPU time= 0.01 sec
 memory,1000,m
 orient,mass
 geometry = {
  O,                 -2.37974678 ,   3.40506324 ,   0.00000000
  H,                 -1.41974678 ,   3.40506324 ,   0.00000000
  H,                 -2.70020136 ,   4.30999907 ,   0.00000000
 }
 mass,iso
 basis=6-311g(d,p)
 {hf
 start,atden}
 
 optg
 {frequencies, symm=auto,print=0,analytical}
 put,molden,h2o.molden
 Commands initialized (834), CPU time= 0.01 sec, 672 directives.
 Default parameters read. Elapsed time= 0.09 sec

 Checking input...
 Passed
1


                                         ***  PROGRAM SYSTEM MOLPRO  ***
                                       Copyright, TTI GmbH Stuttgart, 2015
                                    Version 2022.2 linked Thu Sep 29 12:37:28 2022


 **********************************************************************************************************************************
 LABEL *                                                                                 
  (8 PROC) 64 bit mpp version                                                            DATE: 21-Aug-25          TIME: 12:44:50  
 **********************************************************************************************************************************

 SHA1:             51306cdc306ce2a111a2867affebcb289530e0a7
 **********************************************************************************************************************************

 Memory per process:      1000 MW
 Total memory per node:   6000 MW

 GA preallocation disabled
 GA check disabled

 Variable memory set to 1000.0 MW

 ZCENTRE=MASS


 Geometry recognized as XYZ



 Using masses of most abundant isotopes

 **********************************************************************************************************************************
 SETTING BASIS          =    6-311G(D,P)


 Recomputing integrals since basis changed


 Using spherical harmonics

 Library entry O      S 6-311G               selected for orbital group  1
 Library entry O      P 6-311G               selected for orbital group  1
 Library entry O      D 6-311G*              selected for orbital group  1
 Library entry H      S 6-311G               selected for orbital group  2
 Library entry H      P 6-311G**             selected for orbital group  2


 PROGRAM * SEWARD (Integral evaluation for generally contracted gaussian basis sets)     Author: Roland Lindh, 1990

 Geometry written to block  1 of record 700

 Orientation using atomic masses  
 Molecule type: Asymmetric top,     Order of principal axis = 2
 Symmetry elements: X,Y
 Rotational constants:     282.5913843    919.6760006    407.9403386 GHz

 Point group  C2v 



 ATOMIC COORDINATES

 NR  ATOM    CHARGE       X              Y              Z

   1  O       8.00    0.000000000    0.000000000   -0.117177192
   2  H       1.00    0.000000000    1.481499721    0.929843299
   3  H       1.00    0.000000000   -1.481499721    0.929843299

 Bond lengths in Bohr (Angstrom)

 1-2  1.814137077  1-3  1.814137077
     ( 0.959999999)     ( 0.959999999)

 Bond angles

  2-1-3  109.49999976

 NUCLEAR CHARGE:                   10
 NUMBER OF PRIMITIVE AOS:          48
 NUMBER OF SYMMETRY AOS:           47
 NUMBER OF CONTRACTIONS:           30   (   14A1  +    5B1  +    9B2  +    2A2  )
 NUMBER OF INNER CORE ORBITALS:     0   (    0A1  +    0B1  +    0B2  +    0A2  )
 NUMBER OF OUTER CORE ORBITALS:     1   (    1A1  +    0B1  +    0B2  +    0A2  )
 NUMBER OF VALENCE ORBITALS:        6   (    3A1  +    1B1  +    2B2  +    0A2  )


 NUCLEAR REPULSION ENERGY    9.15711604

 Eigenvalues of metric

         1 0.189E-01 0.900E-01 0.114E+00 0.151E+00 0.288E+00 0.441E+00 0.590E+00 0.833E+00
         2 0.215E+00 0.457E+00 0.912E+00 0.118E+01 0.228E+01
         3 0.399E-01 0.994E-01 0.122E+00 0.402E+00 0.562E+00 0.835E+00 0.125E+01 0.156E+01
         4 0.646E+00 0.132E+01


 Contracted 2-electron integrals neglected if value below      1.0D-11
 AO integral compression algorithm  1   Integral accuracy      1.0D-11

     1.573 MB (compressed) written to integral file (100.0%)

     Node minimum: 0.262 MB, node maximum: 0.262 MB


 NUMBER OF SORTED TWO-ELECTRON INTEGRALS:       4884.     BUFFER LENGTH:  32768
 NUMBER OF SEGMENTS:   1  SEGMENT LENGTH:       4884      RECORD LENGTH: 524288

 Memory used in sort:       0.56 MW

 SORT1 READ       47172. AND WROTE        4541. INTEGRALS IN      1 RECORDS. CPU TIME:     0.02 SEC, REAL TIME:     0.03 SEC
 SORT2 READ       30106. AND WROTE       32916. INTEGRALS IN      6 RECORDS. CPU TIME:     0.00 SEC, REAL TIME:     0.00 SEC

 Node minimum:        4832.  Node maximum:        6144. integrals

 OPERATOR DM      FOR CENTER  0  COORDINATES:    0.000000    0.000000    0.000000


 **********************************************************************************************************************************
 DATASETS  * FILE   NREC   LENGTH (MB)   RECORD NAMES
              1      18       28.60       500      610      700      900      950      970     1000      129      960     1100   
                                          VAR    BASINP    GEOM    SYMINP    ZMAT    AOBASIS   BASIS     P2S    ABASIS      S 
                                         1400     1410     1200     1210     1080     1600     1650     1700   
                                           T        V       H0       H01     AOSYM     SMH    MOLCAS    OPER   

 PROGRAMS   *        TOTAL       INT
 CPU TIMES  *         0.63      0.48
 REAL TIME  *         0.87 SEC
 DISK USED  *        28.89 MB (local),      197.57 MB (total)
 GA USED    *         0.00 MB       (max)       0.00 MB       (current)
 **********************************************************************************************************************************


 Program * Restricted Hartree-Fock

 Orbital guess generated from atomic densities.

 Initial occupancy:   3   1   1   0

 NELEC=   10   SYM=1   MS2= 0   THRE=1.0D-08   THRD=1.0D-06   THRG=1.0D-06  HFMA2=F  DIIS_START=2   DIIS_MAX=10   DIIS_INCORE=F

 Level shifts:    0.00 (CLOSED)    0.00 (OPEN)    0.30 (GAP_MIN)

 ITER           ETOT              DE          GRAD        DDIFF     DIIS  NEXP   TIME(IT)  TIME(TOT)  DIAG
   1      -76.00714630     -76.00714630     0.00D+00     0.15D+00     0     0       0.00      0.01    start
   2      -76.03628294      -0.02913663     0.33D-01     0.23D-01     1     0       0.00      0.01    diag
   3      -76.04544799      -0.00916505     0.18D-01     0.79D-02     2     0       0.00      0.01    diag
   4      -76.04565661      -0.00020862     0.19D-02     0.16D-02     3     0       0.00      0.01    diag
   5      -76.04567625      -0.00001964     0.51D-03     0.65D-03     4     0       0.00      0.01    diag
   6      -76.04567696      -0.00000071     0.85D-04     0.13D-03     5     0       0.00      0.01    diag
   7      -76.04567698      -0.00000002     0.15D-04     0.21D-04     6     0       0.00      0.01    diag
   8      -76.04567698      -0.00000000     0.21D-05     0.27D-05     7     0       0.00      0.01    fixocc
   9      -76.04567698      -0.00000000     0.39D-06     0.48D-06     8     0       0.00      0.01    diag
  10      -76.04567698      -0.00000000     0.90D-07     0.95D-07     0     0       0.00      0.01    diag/orth

 Final occupancy:   3   1   1   0

 !RHF STATE 1.1 Energy                -76.045676984554
  RHF One-electron energy            -123.103209673131
  RHF Two-electron energy              37.900416648371
  RHF Kinetic energy                   76.040621292866
  RHF Nuclear energy                    9.157116040206
  RHF Virial quotient                  -1.000066486723

 !RHF STATE 1.1 Dipole moment           0.00000000     0.00000000     0.82250013
 Dipole moment /Debye                   0.00000000     0.00000000     2.09058680

 Orbital energies:

           1.1          2.1          3.1          4.1          5.1
    -20.542429    -1.335968    -0.561211     0.150997     0.596347

           1.2          2.2          3.2
     -0.497601     1.004855     1.742865

           1.3          2.3          3.3
     -0.713979     0.216037     0.575900

           1.4          2.4
      1.498937     3.567344


 HOMO      1.2    -0.497601 =     -13.5404eV
 LUMO      4.1     0.150997 =       4.1088eV
 LUMO-HOMO         0.648598 =      17.6492eV

 Orbitals saved in record  2100.2


 **********************************************************************************************************************************
 DATASETS  * FILE   NREC   LENGTH (MB)   RECORD NAMES
              1      18       28.60       500      610      700      900      950      970     1000      129      960     1100   
                                          VAR    BASINP    GEOM    SYMINP    ZMAT    AOBASIS   BASIS     P2S    ABASIS      S 
                                         1400     1410     1200     1210     1080     1600     1650     1700   
                                           T        V       H0       H01     AOSYM     SMH    MOLCAS    OPER   

              2       4        0.38       700     1000      520     2100   
                                         GEOM     BASIS   MCVARS     RHF  

 PROGRAMS   *        TOTAL    HF-SCF       INT
 CPU TIMES  *         0.64      0.01      0.48
 REAL TIME  *         0.89 SEC
 DISK USED  *        29.04 MB (local),      198.52 MB (total)
 GA USED    *         0.00 MB       (max)       0.00 MB       (current)
 **********************************************************************************************************************************


 PROGRAM * OPT (Geometry optimization)     Authors: F. Eckert and H.-J. Werner


 BFGS update of hessian

 *** Long output written to logfile /home/zwa/Overlap_Integral_Project/overlap_integral_gaussian/h20cal/h2ohf/h2o.log ***


 Geometry optimization using default procedure for command HF-SCF

 Geometry written to block  1 of record 700

 Making model hessian for cartesian coordinates

 Entering Rational Function Geometry Optimization

 ITER.   ENERGY(OLD)    ENERGY(NEW)      DE          GRADMAX     GRADNORM    GRADRMS     STEPMAX     STEPLEN     STEPRMS   CPU-time
   1   -76.04567698   -76.04698210    -0.00130512  0.03181310  0.03706035  0.01235345  0.07697033  0.08095578  0.04673984      0.55
   2   -76.04698210   -76.04701157    -0.00002946  0.00339876  0.00472761  0.00157587  0.01497942  0.01525756  0.00880896      1.14
   3   -76.04701157   -76.04701197    -0.00000040  0.00085885  0.00087154  0.00029051  0.00071038  0.00091340  0.00052735      1.60
   4   -76.04701197   -76.04701203    -0.00000006  0.00029741  0.00030280  0.00010093  0.00042199  0.00052227  0.00030153      2.09

 END OF GEOMETRY OPTIMIZATION.

 Geometry written to block  1 of record 700

 Recomputing wavefunction for reoriented structure

 Current geometry (xyz format, in Angstrom)

    3
 HF-SCF000/6-311G(D,P)  ENERGY=-76.04701203
 O          0.0000000000        0.0000000000       -0.0637712159
 H          0.0000000000        0.7488255891        0.5060476068
 H          0.0000000000       -0.7488255891        0.5060476068

 **********************************************************************************************************************************


 **********************************************************************************************************************************
 DATASETS  * FILE   NREC   LENGTH (MB)   RECORD NAMES
              1      18       28.60       500      610      700      900      950      970     1000      129      960     1100   
                                          VAR    BASINP    GEOM    SYMINP    ZMAT    AOBASIS   BASIS     P2S    ABASIS      S 
                                         1400     1410     1200     1210     1080     1600     1650     1700   
                                           T        V       H0       H01     AOSYM     SMH    MOLCAS    OPER   

              2       4        0.38       700     1000      520     2100   
                                         GEOM     BASIS   MCVARS     RHF  

 PROGRAMS   *        TOTAL      OPTG    HF-SCF       INT
 CPU TIMES  *         3.17      2.52      0.01      0.48
 REAL TIME  *         3.07 SEC
 DISK USED  *        29.04 MB (local),      198.52 MB (total)
 SF USED    *         0.02 MB
 GA USED    *         0.00 MB       (max)       0.00 MB       (current)
 **********************************************************************************************************************************


 PROGRAM * HESSIAN

 PROGRAM * MCKINLEY (Hessian of the energy)     Author: A. Bernhardsson, R. Lindh

 Orbitals from record         2100.2

 Number of closed-shell orbitals:  5 (  3  1  1  0 )
 Number of occupied orbitals:      5 (  3  1  1  0 )

 Number of electrons= 10     Singlet     Space symmetry=1      Wavefunction type: CLOSED          


 McKinley needed      0.89 seconds of CPU time

 Entering CPHF calculation

 CPHF needed  64 iterations for  9 perturbations.  Total CPU time:    0.02 sec


 HF-SCF hessian saved to record  5300.2

 PROGRAM * FREQUENCIES (Calculation of harmonic vibrational spectra for HF-SCF)


 Permanent Dipole Moment [debye]
   1-  3    0.000000    0.000000    0.000000

 Dipole Moment Norm    0.0000000 [debye]

 Dipole Moment Derivatives [debye/ang]
              1             2             3             4             5             6             7             8
    1    0.00000000    0.00000000    0.00000000    0.00000000    0.00000000    0.00000000    0.00000000    0.00000000
    2    0.00000000    0.00000000    0.00000000    0.00000000    0.00000000    0.00000000    0.00000000    0.00000000
    3    0.00000000    0.00000000    0.00000000    0.00000000    0.00000000    0.00000000    0.00000000    0.00000000
              9
    1    0.00000000
    2    0.00000000
    3    0.00000000

 Projecting out rotations and translations

 Force Constants (Second Derivatives of the Energy) in [a.u.]
                             OX1         OY1         OZ1         HX2         HY2     
           OX1           0.0000000
           OY1           0.0000000   0.8032672
           OZ1           0.0000000  -0.0000000   0.5365848
           HX2          -0.0000000   0.0000000   0.0000000  -0.0000000
           HY2           0.0000000  -0.4016336  -0.2406851   0.0000000   0.4354120
           HZ2           0.0000000  -0.3056231  -0.2682924   0.0000000   0.2731541
           HX3          -0.0000000   0.0000000   0.0000000   0.0000000   0.0000000
           HY3           0.0000000  -0.4016336   0.2406851   0.0000000  -0.0337785
           HZ3           0.0000000   0.3056231  -0.2682924   0.0000000  -0.0324690
                             HZ2         HX3         HY3         HZ3     
           HZ2           0.2504281
           HX3           0.0000000  -0.0000000
           HY3           0.0324690   0.0000000   0.4354120
           HZ3           0.0178643   0.0000000  -0.2731541   0.2504281


 Atomic Masses
   1-  3   15.994910    1.007825    1.007825

 Mass weighted Second Derivative Matrix
                             OX1         OY1         OZ1         HX2         HY2     
           OX1           0.0000000
           OY1           0.0000000   0.0502202
           OZ1           0.0000000  -0.0000000   0.0335472
           HX2          -0.0000000   0.0000000   0.0000000  -0.0000000
           HY2           0.0000000  -0.1000338  -0.0599468   0.0000000   0.4320314
           HZ2           0.0000000  -0.0761207  -0.0668228   0.0000000   0.2710332
           HX3          -0.0000000   0.0000000   0.0000000   0.0000000   0.0000000
           HY3           0.0000000  -0.1000338   0.0599468   0.0000000  -0.0335162
           HZ3           0.0000000   0.0761207  -0.0668228   0.0000000  -0.0322169
                             HZ2         HX3         HY3         HZ3     
           HZ2           0.2484837
           HX3           0.0000000  -0.0000000
           HY3           0.0322169   0.0000000   0.4320314
           HZ3           0.0177256   0.0000000  -0.2710332   0.2484837


 Mass Weighted 2nd Derivative Matrix Eigenvalues
   1-  9    0.000000    0.000000    0.000000    0.000000    0.000000    0.000000    0.116021    0.649283    0.679494

 Mass Weighted 2nd Derivative Matrix Eigenvectors
              1             2             3             4             5             6             7             8
    1    0.00000000    0.00000000    0.00000000    1.00000000    0.00000000    0.00000000    0.00000000    0.00000000
    2    0.20361095    0.67897685    0.04862254    0.00000000   -0.57421038   -0.30256086    0.00000000    0.00000000
    3    0.81853196   -0.28703211    0.01999240    0.00000000   -0.20749974    0.30372234   -0.27084055   -0.19636775
    4   -0.29153873   -0.32844646    0.75331236    0.00000000   -0.47962122    0.09804115    0.00000000    0.00000000
    5   -0.04387169    0.29438110    0.00669249    0.00000000   -0.09701543    0.32971803   -0.41506032    0.57247264
    6    0.33028415   -0.23493418    0.01226271    0.00000000   -0.11400923   -0.45686506    0.53948830    0.39114566
    7    0.29002146    0.33460489    0.65537145    0.00000000    0.60437647   -0.09562671    0.00000000    0.00000000
    8   -0.04387169    0.29438110    0.00669249    0.00000000   -0.09701543    0.32971803    0.41506032   -0.57247264
    9    0.08064534    0.09083479   -0.00222588    0.00000000    0.00983766    0.60934349    0.53948830    0.39114566
              9
    1    0.00000000
    2   -0.27186070
    3    0.00000000
    4    0.00000000
    5    0.54152034
    6    0.41206990
    7    0.00000000
    8    0.54152034
    9   -0.41206990

   Low Vibration      Wavenumber
        Nr             [1/cm] 
        1                0.00
        2                0.00
        3                0.00
        4                0.00
        5                0.00
        6                0.00

     Vibration        Wavenumber
        Nr             [1/cm] 
        1             1750.94
        2             4142.11
        3             4237.38

 FREQUENCIES * CALCULATION OF NORMAL MODES FOR HF-SCF


 Atomic Coordinates

  Nr  Atom  Charge       X              Y              Z

   1   O     8.00    0.000000000    0.000000000   -0.120510133
   2   H     1.00    0.000000000    1.415075279    0.956291383
   3   H     1.00    0.000000000   -1.415075279    0.956291383

 Gradient norm at reference geometry: 0.30280D-03

 Normal Modes

                              1 A1        2 A1        3 B2 
 Wavenumbers [cm-1]         1750.94     4142.11     4237.38
 Intensities [km/mol]          0.00        0.00        0.00
 Intensities [relative]        0.00        0.00        0.00
           OX1             -0.00000     0.00000     0.00000
           OY1              0.00000     0.00000    -0.06798
           OZ1             -0.06772    -0.04910     0.00000
           HX2             -0.00000    -0.00000     0.00000
           HY2             -0.41345     0.57025     0.53941
           HZ2              0.53739     0.38962     0.41047
           HX3              0.00000     0.00000     0.00000
           HY3              0.41345    -0.57025     0.53941
           HZ3              0.53739     0.38962    -0.41047


 Normal Modes of low/zero frequencies

                                  1           2           3           4           5
 Wavenumbers [cm-1]            0.00        0.00        0.00        0.00        0.00
 Intensities [km/mol]          0.00        0.00        0.00        0.00        0.00
 Intensities [relative]        0.00        0.00        0.00        0.00        0.00
           OX1             -0.00000     0.00000     0.00000     0.25004    -0.00000
           OY1              0.05091     0.16977     0.01216    -0.00000    -0.14358
           OZ1              0.20467    -0.07177     0.00500    -0.00000    -0.05188
           HX2             -0.29040    -0.32717     0.75038    -0.00000    -0.47776
           HY2             -0.04370     0.29324     0.00667    -0.00000    -0.09664
           HZ2              0.32900    -0.23402     0.01222    -0.00000    -0.11357
           HX3              0.28889     0.33330     0.65282    -0.00000     0.60203
           HY3             -0.04370     0.29324     0.00667    -0.00000    -0.09664
           HZ3              0.08033     0.09048    -0.00222     0.00000     0.00980

                                  6
 Wavenumbers [cm-1]            0.00
 Intensities [km/mol]          0.00
 Intensities [relative]        0.00
           OX1             -0.00000
           OY1             -0.07565
           OZ1              0.07594
           HX2              0.09766
           HY2              0.32844
           HZ2             -0.45509
           HX3             -0.09525
           HY3              0.32844
           HZ3              0.60697


 Frequencies dumped to record   5400.2

 Zero point energy:  0.02307881 [H]     5065.21 [1/CM]       60.59 [KJ/MOL]
 Frequency information read from record  5400.2


 **********************************************************************************************************************************
 DATASETS  * FILE   NREC   LENGTH (MB)   RECORD NAMES
              1      18       28.60       500      610      700      900      950      970     1000      129      960     1100   
                                          VAR    BASINP    GEOM    SYMINP    ZMAT    AOBASIS   BASIS     P2S    ABASIS      S 
                                         1400     1410     1200     1210     1080     1600     1650     1700   
                                           T        V       H0       H01     AOSYM     SMH    MOLCAS    OPER   

              2       7        0.39       700     1000      520     2100     5300     5450     5400   
                                         GEOM     BASIS   MCVARS     RHF     HESS     NMOD     FREQ   

              4       5        0.04      4100     4000     4200     4300     4400   

 PROGRAMS   *        TOTAL      FREQ      OPTG    HF-SCF       INT
 CPU TIMES  *         4.08      0.91      2.52      0.01      0.48
 REAL TIME  *         3.47 SEC
 DISK USED  *        29.05 MB (local),      198.56 MB (total)
 SF USED    *         0.04 MB
 GA USED    *         0.00 MB       (max)       0.00 MB       (current)
 **********************************************************************************************************************************

 Dump information in style MOLDEN to h2o.molden                                                                      

 Molecular orbitals read from record     2100.2  Type=RHF/CANONICAL  
 Occupation numbers read from record     2100.2  Type=RHF/RHF  
 Orbital energies read from record       2100.2  Type=RHF/CANONICAL  
 Redundancy group numbers read from rec  2100.2  Type=RHF/RHF  

 DUMP ORBITAL  1.1 AS ORBITAL    1  occ=    2.0000  eig=  -20.5413  GROUP=   2
 DUMP ORBITAL  2.1 AS ORBITAL    2  occ=    2.0000  eig=   -1.3491  GROUP=   2
 DUMP ORBITAL  1.3 AS ORBITAL    3  occ=    2.0000  eig=   -0.7172  GROUP=   2
 DUMP ORBITAL  3.1 AS ORBITAL    4  occ=    2.0000  eig=   -0.5729  GROUP=   2
 DUMP ORBITAL  1.2 AS ORBITAL    5  occ=    2.0000  eig=   -0.5007  GROUP=   2

 Total charge:      10.000000
 Frequency information read from record  5400.2

 **********************************************************************************************************************************

 HF/6-311G(D,P)//HF/6-311G(D,P) energy=    -76.047012027782

    OPTG(HF-SCF)          HF-SCF
    -76.04701203    -76.04567698
 **********************************************************************************************************************************
 Molpro calculation terminated
