
 Working directory              : /tmp/lme/molpro.4gKBxzw0YY/
 Global scratch directory       : /tmp/lme/molpro.4gKBxzw0YY/
 Wavefunction directory         : /home/lme/wfu/
 Main file repository           : /tmp/lme/molpro.4gKBxzw0YY/

 id        : liedlgroup

 Nodes     nprocs
 sv1-c724     6
 GA implementation: MPI file
 GA implementation (serial work in mppx): MPI file

 Using customized tuning parameters: mindgm=1; mindgv=20; mindgc=4; mindgr=1; noblas=0; minvec=7
 default implementation of scratch files=sf  


 Variables initialized (1025), CPU time= 0.01 sec
 memory, 200, m                                                                  ! Memory Requirements
 gthresh, optgrad=1.d-7,twoint=1.d-14,prefac=1.d-16                            ! Guntram Rezept um numerischen Schmutz zu entfernen
 orient,mass
 geometry = {
  H,    0.7493682,    0.0000000,    0.4424329
  O,    0.0000000,    0.0000000,   -0.1653507
  H,   -0.7493682,    0.0000000,    0.4424329
 }
 
 mass, iso
 basis=6-311g(d,p)
 
 {hf
 start,atden}
 
 mp2
 
 optg
 {frequencies, symm=auto, print=0,analytical}
 put,molden,h2o_mp2.molden
 Commands initialized (840), CPU time= 0.01 sec, 684 directives.
 Default parameters read. Elapsed time= 0.07 sec

 Checking input...
 Passed
1


                                         ***  PROGRAM SYSTEM MOLPRO  ***
                                       Copyright, TTI GmbH Stuttgart, 2015
                                    Version 2022.3 linked Wed Nov 30 12:40:34 2022


 **********************************************************************************************************************************
 LABEL *                                                                                 
  (6 PROC) 64 bit mpp version                                                            DATE: 25-Aug-25          TIME: 21:30:17  
 **********************************************************************************************************************************

 SHA1:             e31ec9a5ea85254ab76f59d122cbdd51c71cf98b
 **********************************************************************************************************************************

 Memory per process:       200 MW
 Total memory per node:   1200 MW

 GA preallocation disabled
 GA check disabled

 Variable memory set to 200.0 MW


 THRESHOLDS:

 ZERO    =  1.00D-12  ONEINT  =  1.00D-12  TWOINT  =  1.00D-14  PREFAC  =  1.00D-16  XXXXXX  =  1.00D-09  EORDER  =  1.00D-04
 ENERGY  =  0.00D+00  ETEST   =  0.00D+00  EDENS   =  0.00D+00  THRDEDEF=  1.00D-06  GRADIENT=  1.00D-05  STEP    =  1.00D-03
 ORBITAL =  1.00D-05  CIVEC   =  1.00D-05  COEFF   =  1.00D-04  PRINTCI =  5.00D-02  PUNCHCI =  9.90D+01  OPTGRAD =  1.00D-07
 OPTENERG=  1.00D-06  OPTSTEP =  3.00D-04  THRGRAD =  1.00D-10  COMPRESS=  1.00D-11  VARMIN  =  1.00D-07  VARMAX  =  1.00D-03
 THRDOUB =  0.00D+00  THRDIV  =  1.00D-05  THRRED  =  1.00D-07  THRPSP  =  1.00D+00  THRDC   =  1.00D-10  THRCS   =  1.00D-10
 THRNRM  =  1.00D-08  THREQ   =  0.00D+00  THRDE   =  1.00D+00  THRREF  =  1.00D-05  SPARFAC =  1.00D+00  THRDLP  =  1.00D-07
 THRDIA  =  1.00D-10  THRDLS  =  1.00D-07  THRGPS  =  0.00D+00  THRKEX  =  0.00D+00  THRDIS  =  2.00D-01  THRVAR  =  1.00D-10
 THRLOC  =  1.00D-06  THRGAP  =  1.00D-06  THRLOCT = -1.00D+00  THRGAPT = -1.00D+00  THRORB  =  1.00D-06  THRMLTP =  0.00D+00
 THRCPQCI=  1.00D-10  KEXTA   =  0.00D+00  THRCOARS=  0.00D+00  SYMTOL  =  1.00D-06  GRADTOL =  1.00D-06  THROVL  =  1.00D-08
 THRORTH =  1.00D-08  THRDLOVL= -1.00D+00  GRID    =  1.00D-06  GRIDMAX =  1.00D-03  DTMAX   =  0.00D+00  THROCCDE=  1.00D-01
 THROCCDE=  1.00D-01  THRPRINT=  2.50D-01

 ZCENTRE=MASS


 Geometry recognized as XYZ



 Using masses of most abundant isotopes

 **********************************************************************************************************************************
 SETTING BASIS          =    6-311G(D,P)


 Recomputing integrals since basis changed


 Using spherical harmonics

 Library entry H      S 6-311G               selected for orbital group  1
 Library entry H      P 6-311G**             selected for orbital group  1
 Library entry O      S 6-311G               selected for orbital group  2
 Library entry O      P 6-311G               selected for orbital group  2
 Library entry O      D 6-311G*              selected for orbital group  2


 PROGRAM * SEWARD (Integral evaluation for generally contracted gaussian basis sets)     Author: Roland Lindh, 1990

 Geometry written to block  1 of record 700

 Orientation using atomic masses  
 Molecule type: Asymmetric top,     Order of principal axis = 2
 Symmetry elements: X,Y
 Rotational constants:     281.8391796    764.2747781    446.4898054 GHz

 Point group  C2v 



 ATOMIC COORDINATES

 NR  ATOM    CHARGE       X              Y              Z

   1  H       1.00    0.000000000    1.416100665    1.020005300
   2  H       1.00    0.000000000   -1.416100665    1.020005300
   3  O       8.00    0.000000000    0.000000000   -0.128539247

 Bond lengths in Bohr (Angstrom)

 1-3  1.823319958  2-3  1.823319958
     ( 0.964859370)     ( 0.964859370)

 Bond angles

  1-3-2  101.91165288

 NUCLEAR CHARGE:                   10
 NUMBER OF PRIMITIVE AOS:          48
 NUMBER OF SYMMETRY AOS:           47
 NUMBER OF CONTRACTIONS:           30   (   14A1  +    5B1  +    9B2  +    2A2  )
 NUMBER OF INNER CORE ORBITALS:     0   (    0A1  +    0B1  +    0B2  +    0A2  )
 NUMBER OF OUTER CORE ORBITALS:     1   (    1A1  +    0B1  +    0B2  +    0A2  )
 NUMBER OF VALENCE ORBITALS:        6   (    3A1  +    1B1  +    2B2  +    0A2  )


 NUCLEAR REPULSION ENERGY    9.12828373

 Eigenvalues of metric

         1 0.182E-01 0.902E-01 0.115E+00 0.147E+00 0.292E+00 0.447E+00 0.611E+00 0.820E+00
         2 0.215E+00 0.458E+00 0.907E+00 0.120E+01 0.227E+01
         3 0.422E-01 0.986E-01 0.128E+00 0.392E+00 0.553E+00 0.846E+00 0.122E+01 0.154E+01
         4 0.659E+00 0.129E+01


 Contracted 2-electron integrals neglected if value below      1.0D-14
 AO integral compression algorithm  1   Integral accuracy      1.0D-14

     1.573 MB (compressed) written to integral file (100.0%)

     Node minimum: 0.262 MB, node maximum: 0.262 MB


 NUMBER OF SORTED TWO-ELECTRON INTEGRALS:       4884.     BUFFER LENGTH:  32768
 NUMBER OF SEGMENTS:   1  SEGMENT LENGTH:       4884      RECORD LENGTH: 524288

 Memory used in sort:       0.56 MW

 SORT1 READ       47899. AND WROTE        4383. INTEGRALS IN      1 RECORDS. CPU TIME:     0.00 SEC, REAL TIME:     0.01 SEC
 SORT2 READ       30106. AND WROTE       32916. INTEGRALS IN      6 RECORDS. CPU TIME:     0.00 SEC, REAL TIME:     0.01 SEC

 Node minimum:        4832.  Node maximum:        6144. integrals

 OPERATOR DM      FOR CENTER  0  COORDINATES:    0.000000    0.000000    0.000000


 **********************************************************************************************************************************
 DATASETS  * FILE   NREC   LENGTH (MB)   RECORD NAMES
              1      18       28.60       500      610      700      900      950      970     1000      129      960     1100   
                                          VAR    BASINP    GEOM    SYMINP    ZMAT    AOBASIS   BASIS     P2S    ABASIS      S 
                                         1400     1410     1200     1210     1080     1600     1650     1700   
                                           T        V       H0       H01     AOSYM     SMH    MOLCAS    OPER   

 PROGRAMS   *        TOTAL       INT
 CPU TIMES  *         0.37      0.22
 REAL TIME  *         0.46 SEC
 DISK USED  *        28.89 MB (local),      197.64 MB (total)
 GA USED    *         0.00 MB       (max)       0.00 MB       (current)
 **********************************************************************************************************************************


 Program * Restricted Hartree-Fock

 Orbital guess generated from atomic densities.

 Initial occupancy:   3   1   1   0

 NELEC=   10   SYM=1   MS2= 0   THRE=1.0D-08   THRD=1.0D-06   THRG=1.0D-06  HFMA2=F  DIIS_START=2   DIIS_MAX=10   DIIS_INCORE=F

 Level shifts:    0.00 (CLOSED)    0.00 (OPEN)    0.30 (GAP_MIN)

 ITER           ETOT              DE          GRAD        DDIFF     DIIS  NEXP   TIME(IT)  TIME(TOT)  DIAG
   1      -76.00566839     -76.00566839     0.00D+00     0.15D+00     0     0       0.00      0.00    start
   2      -76.03579839      -0.03013001     0.33D-01     0.25D-01     1     0       0.00      0.00    diag
   3      -76.04538732      -0.00958893     0.19D-01     0.83D-02     2     0       0.00      0.00    diag
   4      -76.04560181      -0.00021449     0.20D-02     0.15D-02     3     0       0.00      0.00    diag
   5      -76.04562339      -0.00002158     0.54D-03     0.62D-03     4     0       0.00      0.00    diag
   6      -76.04562412      -0.00000073     0.87D-04     0.10D-03     5     0       0.00      0.00    diag
   7      -76.04562414      -0.00000002     0.15D-04     0.19D-04     6     0       0.00      0.00    diag
   8      -76.04562414      -0.00000000     0.17D-05     0.24D-05     7     0       0.00      0.00    fixocc
   9      -76.04562414      -0.00000000     0.14D-06     0.32D-06     8     0       0.00      0.00    diag
  10      -76.04562414      -0.00000000     0.23D-07     0.37D-07     0     0       0.00      0.00    diag/orth

 Final occupancy:   3   1   1   0

 !RHF STATE 1.1 Energy                -76.045624140596
  RHF One-electron energy            -123.026544740897
  RHF Two-electron energy              37.852636872311
  RHF Kinetic energy                   76.033209807746
  RHF Nuclear energy                    9.128283727990
  RHF Virial quotient                  -1.000163275138

 !RHF STATE 1.1 Dipole moment           0.00000000     0.00000000     0.86966284
 Dipole moment /Debye                   0.00000000     0.00000000     2.21046246

 Orbital energies:

           1.1          2.1          3.1          4.1          5.1
    -20.547738    -1.339565    -0.575739     0.148652     0.616281

           1.2          2.2          3.2
     -0.500192     1.003349     1.700467

           1.3          2.3          3.3
     -0.697402     0.216514     0.558138

           1.4          2.4
      1.522025     3.534487


 HOMO      1.2    -0.500192 =     -13.6109eV
 LUMO      4.1     0.148652 =       4.0450eV
 LUMO-HOMO         0.648844 =      17.6560eV

 Orbitals saved in record  2100.2


 **********************************************************************************************************************************
 DATASETS  * FILE   NREC   LENGTH (MB)   RECORD NAMES
              1      18       28.60       500      610      700      900      950      970     1000      129      960     1100   
                                          VAR    BASINP    GEOM    SYMINP    ZMAT    AOBASIS   BASIS     P2S    ABASIS      S 
                                         1400     1410     1200     1210     1080     1600     1650     1700   
                                           T        V       H0       H01     AOSYM     SMH    MOLCAS    OPER   

              2       4        0.38       700     1000      520     2100   
                                         GEOM     BASIS   MCVARS     RHF  

 PROGRAMS   *        TOTAL    HF-SCF       INT
 CPU TIMES  *         0.37      0.00      0.22
 REAL TIME  *         0.48 SEC
 DISK USED  *        29.04 MB (local),      198.59 MB (total)
 GA USED    *         0.00 MB       (max)       0.00 MB       (current)
 **********************************************************************************************************************************


 PROGRAM * MP2 (Closed-shell)     Authors: C. Hampel, H.-J. Werner, 1991, M. Deegan, P.J. Knowles, 1992


 Convergence thresholds:  THRVAR = 1.00D-12  THRDEN = 1.00D-08

 Number of core orbitals:           1 (   1   0   0   0 )
 Number of closed-shell orbitals:   4 (   2   1   1   0 )
 Number of external orbitals:      25 (  11   4   8   2 )

 Molecular orbitals read from record     2100.2  Type=RHF/CANONICAL  

 Number of N-1 electron functions:               4
 Number of N-2 electron functions:              10
 Number of singly external CSFs:                34
 Number of doubly external CSFs:              1397
 Total number of CSFs:                        1432

 Length of J-op  integral file:               0.00 MB
 Length of K-op  integral file:               0.02 MB

 Integral transformation finished. Total CPU:   0.01 sec, npass=  1  Memory used:   0.07 MW

 Memory needed for MP2:                      0.00 MW

 SCS-MP2 correlation energy:           -0.214492904978   (PS=  1.200000  PT=  0.333333)
 SCS-MP2 total energy:                -76.260117045573


  Reference energy                    -76.045624140596
  MP2 singlet pair energy              -0.136197313529
  MP2 triplet pair energy              -0.082054492622
  MP2 correlation energy               -0.218251806151

 !MP2 total energy                    -76.263875946747

 KEXT needed  1 integral passes. Memory used:   0.04 MW  CPU time:      0.00 sec

 CPHF start vector      0.2 not found

 Starting Coupled-perturbed Hartree-Fock, convergence threshold= 1.0D-06

 ITER   MIC  DIIS      VAR         VARC       CPU
   1     0     1    0.15D-01    0.97D-03     0.00
   2     5     2    0.19D-03    0.47D-04     0.00
   3     4     3    0.77D-05    0.61D-06     0.00
   4     2     4    0.57D-06    0.64D-07     0.00

 CPHF convergence reached in  4 macroiterations and   11 microiterations.   Accuracy: 5.6611D-07

 CPHF solution written to record  4100.2

 Dipole moments (unrelaxed):            0.00000000     0.00000000     0.85782897
 Orbital relaxation contribution:      -0.00000000    -0.00000000    -0.02733205
 !MP2 STATE 1.1 Dipole moment           0.00000000     0.00000000     0.83049692
 Dipole moment /Debye                   0.00000000     0.00000000     2.11091262

 CPU-time for density and lagrangian:                  0.00 sec
 CPU-time for coupled-perturbed hartree-fock:          0.00 sec

 MP2 gradient info saved on record         5200.1


 **********************************************************************************************************************************
 DATASETS  * FILE   NREC   LENGTH (MB)   RECORD NAMES
              1      20       28.66       500      610      700      900      950      970     1000      129      960     1100   
                                          VAR    BASINP    GEOM    SYMINP    ZMAT    AOBASIS   BASIS     P2S    ABASIS      S 
                                         1400     1410     1200     1210     1080     1600     1650     1700     1380     5200   
                                           T        V       H0       H01     AOSYM     SMH    MOLCAS    OPER     JKOP      MP2  

              2       5        0.39       700     1000      520     2100     4100   
                                         GEOM     BASIS   MCVARS     RHF     CPHF   

 PROGRAMS   *        TOTAL       MP2    HF-SCF       INT
 CPU TIMES  *         0.43      0.03      0.00      0.22
 REAL TIME  *         0.55 SEC
 DISK USED  *        29.09 MB (local),      198.88 MB (total)
 SF USED    *         0.13 MB
 GA USED    *         0.00 MB       (max)       0.00 MB       (current)
 **********************************************************************************************************************************


 PROGRAM * OPT (Geometry optimization)     Authors: F. Eckert and H.-J. Werner


 BFGS update of hessian

 *** Long output written to logfile /home/lme/overlap_integral_gaussian/molpro_files/h2o/mp2/h2o_mp2.log ***


 Geometry optimization using default procedure for command MP2

 Geometry written to block  1 of record 700

 Entering BMAT geometry-optimization, modelhes=F
 Optimization method: RF

 ITER.   ENERGY(OLD)    ENERGY(NEW)      DE          GRADMAX     GRADNORM    GRADRMS     STEPMAX     STEPLEN     STEPRMS   CPU-time
   1   -76.26387595   -76.26396860    -0.00009265  0.00927434  0.01349424  0.00449808  0.00846997  0.01457512  0.00841495      0.36
   2   -76.26396860   -76.26397165    -0.00000305  0.00085796  0.00118014  0.00039338  0.00241467  0.00443135  0.00255844      0.70
   3   -76.26397165   -76.26397189    -0.00000024  0.00020111  0.00030312  0.00010104  0.00094696  0.00167917  0.00096947      1.05
   4   -76.26397189   -76.26397190    -0.00000000  0.00000152  0.00000187  0.00000062  0.00000358  0.00000564  0.00000326      1.42
   5   -76.26397190   -76.26397189     0.00000001  0.00000003  0.00000004  0.00000001  0.00000003  0.00000004  0.00000002      1.75

 END OF GEOMETRY OPTIMIZATION.

 Geometry written to block  1 of record 700

 Recomputing wavefunction for reoriented structure

 Current geometry (xyz format, in Angstrom)

    3
 MP2/6-311G(D,P)  ENERGY=-76.26397189
 H          0.0000000000        0.7466663206        0.5327730727
 O          0.0000000000        0.0000000000       -0.0671391114
 H          0.0000000000       -0.7466663206        0.5327730727

 **********************************************************************************************************************************


 **********************************************************************************************************************************
 DATASETS  * FILE   NREC   LENGTH (MB)   RECORD NAMES
              1      20       28.66       500      610      700      900      950      970     1000      129      960     1100   
                                          VAR    BASINP    GEOM    SYMINP    ZMAT    AOBASIS   BASIS     P2S    ABASIS      S 
                                         1400     1410     1200     1210     1080     1600     1650     1700     1380     5200   
                                           T        V       H0       H01     AOSYM     SMH    MOLCAS    OPER     JKOP      MP2  

              2       6        0.40       700     1000      520     2100     4100     9001   
                                         GEOM     BASIS   MCVARS     RHF     CPHF    DEN_MP2    

 PROGRAMS   *        TOTAL      OPTG       MP2    HF-SCF       INT
 CPU TIMES  *         2.43      2.00      0.03      0.00      0.22
 REAL TIME  *         2.29 SEC
 DISK USED  *        29.10 MB (local),      198.95 MB (total)
 SF USED    *         0.13 MB
 GA USED    *         0.00 MB       (max)       0.00 MB       (current)
 **********************************************************************************************************************************


 PROGRAM * HESSIAN

 Computing numerical hessian using default procedure for command MP2

 Symmetry elements for unique displacements: X  Y  

 Using AUTO symmetry option

 Running default procedure: HF-SCF000  MP2


 Numerically approximating hessian using central gradient differences

 Task list generated. Total number of displacements:      9


 Switching to mppx mode, nproc=  6

 All   9 tasks completed.  CPU=      1.27 sec, Elapsed=      0.82 sec.

 Switching back to mpp mode, nproc=  6


 MP2 hessian saved to record  5300.2

 PROGRAM * FREQUENCIES (Calculation of harmonic vibrational spectra for MP2)


 Permanent Dipole Moment [debye]
 1-3    0.000000    0.000000    2.100676

 Dipole Moment Norm    2.1006759 [debye]

 Dipole Moment Derivatives [debye/ang]
              1             2             3             4             5             6             7             8
    1    1.75083903    0.00000000    0.00000000   -3.50154514    0.00000000    0.00000000    1.75083903    0.00000000
    2    0.00000000    1.11253999   -0.51282112    0.00000000   -2.22505217    0.00000000    0.00000000    1.11253999
    3    0.00000000   -0.24700477    0.74414711    0.00000000    0.00000000   -1.48830410    0.00000000    0.24700477
              9
    1    0.00000000
    2    0.51282112
    3    0.74414711

 Projecting out rotations and translations

 Force Constants (Second Derivatives of the Energy) in [a.u.]
                             HX1         HY1         HZ1         OX2         OY2     
           HX1           0.0000000
           HY1           0.0000000   0.3797730
           HZ1           0.0000000   0.2464300   0.2338200
           OX2           0.0000000   0.0000000   0.0000000   0.0000000
           OY2           0.0000000  -0.3466237  -0.2784963   0.0000000   0.6932475
           OZ2           0.0000000  -0.2143637  -0.2438810   0.0000000  -0.0000000
           HX3           0.0000000   0.0000000   0.0000000   0.0000000   0.0000000
           HY3           0.0000000  -0.0331492   0.0320663   0.0000000  -0.3466237
           HZ3           0.0000000  -0.0320663   0.0100610   0.0000000   0.2784963
                             OZ2         HX3         HY3         HZ3     
           OZ2           0.4877620
           HX3           0.0000000   0.0000000
           HY3           0.2143637   0.0000000   0.3797730
           HZ3          -0.2438810   0.0000000  -0.2464300   0.2338200


 Atomic Masses
 1-3    1.007825   15.994910    1.007825

 Mass weighted Second Derivative Matrix
                             HX1         HY1         HZ1         OX2         OY2     
           HX1           0.0000000
           HY1           0.0000000   0.3768243
           HZ1           0.0000000   0.2445167   0.2320046
           OX2           0.0000000   0.0000000   0.0000000   0.0000000
           OY2           0.0000000  -0.0863326  -0.0693643   0.0000000   0.0433418
           OZ2           0.0000000  -0.0533910  -0.0607428   0.0000000  -0.0000000
           HX3           0.0000000   0.0000000   0.0000000   0.0000000   0.0000000
           HY3           0.0000000  -0.0328919   0.0318173   0.0000000  -0.0863326
           HZ3           0.0000000  -0.0318173   0.0099829   0.0000000   0.0693643
                             OZ2         HX3         HY3         HZ3     
           OZ2           0.0304948
           HX3           0.0000000   0.0000000
           HY3           0.0533910   0.0000000   0.3768243
           HZ3          -0.0607428   0.0000000  -0.2445167   0.2320046


 Mass Weighted 2nd Derivative Matrix Eigenvalues
 1-9    0.000000    0.000000    0.000000    0.000000    0.000000    0.000000    0.105196    0.577003    0.609296

 Mass Weighted 2nd Derivative Matrix Eigenvectors
              1             2             3             4             5             6             7             8
    1    0.00000000   -0.20804870    0.97811847    0.00000000    0.00000000    0.00000000    0.00000000    0.00000000
    2    0.15050463    0.00000000    0.00000000   -0.01314444    0.15757785   -0.41244051   -0.42104968    0.56808201
    3    0.14213835    0.00000000    0.00000000   -0.00064238   -0.01939400    0.59429143    0.53535064    0.39678992
    4   -0.07228026    0.00000000    0.00000000    0.97322021    0.21673074    0.02541220    0.00000000    0.00000000
    5    0.95234595    0.00000000    0.00000000    0.09537404   -0.10602352   -0.03957062    0.00000000    0.00000000
    6    0.12719195    0.00000000    0.00000000   -0.18643886    0.83602388    0.37176866   -0.26876331   -0.19920136
    7    0.00000000    0.97811847    0.20804870    0.00000000    0.00000000    0.00000000    0.00000000    0.00000000
    8    0.15050463    0.00000000    0.00000000   -0.01314444    0.15757785   -0.41244051    0.42104968   -0.56808201
    9   -0.07828389    0.00000000    0.00000000   -0.09295595    0.43910499   -0.40765156    0.53535064    0.39678992
              9
    1    0.00000000
    2    0.53126041
    3    0.42684340
    4    0.00000000
    5   -0.26670989
    6    0.00000000
    7    0.00000000
    8    0.53126041
    9   -0.42684340

   Low Vibration      Wavenumber
        Nr             [1/cm] 
        1                0.00
        2                0.00
        3                0.00
        4                0.00
        5                0.00
        6                0.00

     Vibration        Wavenumber
        Nr             [1/cm] 
        1             1667.26
        2             3904.75
        3             4012.53

 FREQUENCIES * CALCULATION OF NORMAL MODES FOR MP2


 Atomic Coordinates

  Nr  Atom  Charge       X              Y              Z

   1   H     1.00    0.000000000    1.410994852    1.006795194
   2   O     8.00    0.000000000    0.000000000   -0.126874533
   3   H     1.00    0.000000000   -1.410994852    1.006795194

 Gradient norm at reference geometry: 0.71121D-07

 Normal Modes

                              1 A1        2 A1        3 B2 
 Wavenumbers [cm-1]         1667.26     3904.75     4012.53
 Intensities [km/mol]         51.21        6.19       33.46
 Intensities [relative]      100.00       12.09       65.33
           HX1              0.00000     0.00000     0.00000
           HY1             -0.41941     0.56587     0.52919
           HZ1              0.53327     0.39525     0.42518
           OX2              0.00000     0.00000    -0.00000
           OY2              0.00000     0.00000    -0.06669
           OZ2             -0.06720    -0.04981    -0.00000
           HX3              0.00000     0.00000    -0.00000
           HY3              0.41941    -0.56587     0.52919
           HZ3              0.53327     0.39525    -0.42518


 Normal Modes of low/zero frequencies

                                  1           2           3           4           5
 Wavenumbers [cm-1]            0.00        0.00        0.00        0.00        0.00
 Intensities [km/mol]          0.00        0.00        0.00        0.00        0.00
 Intensities [relative]        0.00        0.00        0.00        0.00        0.00
           HX1              0.00000    -0.20724     0.97431     0.00000     0.00000
           HY1              0.14992     0.00000    -0.00000    -0.01309     0.15696
           HZ1              0.14159     0.00000    -0.00000    -0.00064    -0.01932
           OX2             -0.01807     0.00000    -0.00000     0.24334     0.05419
           OY2              0.23812     0.00000    -0.00000     0.02385    -0.02651
           OZ2              0.03180     0.00000    -0.00000    -0.04662     0.20904
           HX3             -0.00000     0.97431     0.20724     0.00000     0.00000
           HY3              0.14992     0.00000    -0.00000    -0.01309     0.15696
           HZ3             -0.07798     0.00000    -0.00000    -0.09259     0.43740

                                  6
 Wavenumbers [cm-1]            0.00
 Intensities [km/mol]          0.00
 Intensities [relative]        0.00
           HX1             -0.00000
           HY1             -0.41084
           HZ1              0.59198
           OX2              0.00635
           OY2             -0.00989
           OZ2              0.09296
           HX3             -0.00000
           HY3             -0.41084
           HZ3             -0.40607


 Frequencies dumped to record   5400.2

 Zero point energy:  0.02183519 [H]     4792.27 [1/CM]       57.33 [KJ/MOL]
 Frequency information read from record  5400.2

 Recomputing wavefunction at initial geometry


 **********************************************************************************************************************************
 DATASETS  * FILE   NREC   LENGTH (MB)   RECORD NAMES
              1      20       28.66       500      610      700      900      950      970     1000      129      960     1100   
                                          VAR    BASINP    GEOM    SYMINP    ZMAT    AOBASIS   BASIS     P2S    ABASIS      S 
                                         1400     1410     1200     1210     1080     1600     1650     1700     1380     5200   
                                           T        V       H0       H01     AOSYM     SMH    MOLCAS    OPER     JKOP      MP2  

              2       9        0.41       700     1000      520     2100     4100     9001     5300     5450     5400   
                                         GEOM     BASIS   MCVARS     RHF     CPHF    DEN_MP2   HESS     NMOD     FREQ   

 PROGRAMS   *        TOTAL      FREQ      OPTG       MP2    HF-SCF       INT
 CPU TIMES  *         3.89      1.46      2.00      0.03      0.00      0.22
 REAL TIME  *         3.37 SEC
 DISK USED  *        34.73 MB (local),      231.43 MB (total)
 SF USED    *         0.13 MB
 GA USED    *         0.00 MB       (max)       0.00 MB       (current)
 **********************************************************************************************************************************

 Dump information in style MOLDEN to h2o_mp2.molden                                                                  

 Molecular orbitals read from record     2100.2  Type=RHF/CANONICAL (state 1.1)
 Occupation numbers read from record     2100.2  Type=RHF/RHF (state 1.1)
 Orbital energies read from record       2100.2  Type=RHF/CANONICAL (state 1.1)
 Redundancy group numbers read from rec  2100.2  Type=RHF/RHF (state 1.1)

 DUMP ORBITAL  1.1 AS ORBITAL    1  occ=    2.0000  eig=  -20.5461  GROUP=   2
 DUMP ORBITAL  2.1 AS ORBITAL    2  occ=    2.0000  eig=   -1.3428  GROUP=   2
 DUMP ORBITAL  1.3 AS ORBITAL    3  occ=    2.0000  eig=   -0.7022  GROUP=   2
 DUMP ORBITAL  3.1 AS ORBITAL    4  occ=    2.0000  eig=   -0.5760  GROUP=   2
 DUMP ORBITAL  1.2 AS ORBITAL    5  occ=    2.0000  eig=   -0.5005  GROUP=   2

 Total charge:      10.000000
 Frequency information read from record  5400.2

 **********************************************************************************************************************************

 MP2/6-311G(D,P) energy=    -76.263971889779

       OPTG(MP2)             MP2          HF-SCF
    -76.26397189    -76.26387595    -76.04562414
 **********************************************************************************************************************************
 Molpro calculation terminated
