[Molden Format]
[Molpro variables]
_NUMVAR=  1041.000000000000    
_AVOGAD= 0.6022140760000000E+24
_BOLTZ= 0.1380649000000000E-22
_CLIGHTSI=  299792458.0000000    
_JOULE= 0.4359744722207100E-17
_JPCAL=  4.184000000000000    
_PLANCK= 0.6626070150000000E-33
_BOHR= 0.5291772109030000E-10
_ECHARG= 0.1602176634000000E-18
_ENULL= 0.8854187812800001E-11
_MU= 0.1660539066600000E-26
_EMASS= 0.9109383701500001E-30
_AMU2AU=  1822.888486217313    
_CLIGHT=  29979245800.00000    
_EV= 0.3674932217565494E-01
_KJOULE= 0.3808798847133432E-03
_KJOULE/MOL= 0.3808798847133432E-03
_CM= 0.4556335252912009E-05
_CM-1= 0.4556335252912009E-05
_DEB2SI= 0.3335640951981520E-29
_KCAL= 0.1593601437640628E-02
_KCAL/MOL= 0.1593601437640628E-02
_KELVIN= 0.3166811563455608E-05
_HERTZ= 0.1519829846057038E-15
_HZ= 0.1519829846057038E-15
_TOA= 0.5291772109030000    
_TOANG= 0.5291772109030000    
_TORAD= 0.1745329251994330E-01
_TOCM=  219474.6313631965    
_TODEBYE=  2.541746473194078    
_TOE= 0.4803204712570263E-09
_TOEV=  27.21138624598803    
_TOHERTZ=  6579683920501656.    
_TOHZ=  6579683920501656.    
_TOK=  315775.0248040668    
_TOKCAL=  627.5094740630558    
_TOKELVIN=  315775.0248040668    
_TOKJ=  2625.499639479825    
_TOKJOULE=  2625.499639479825    
_TOKG= 0.1660539066600000E-26
_ANG=  1.889726124625770    
_ANGSTROM=  1.889726124625770    
_RPAREF=  0.000000000000000    
_RPADISS=  0.000000000000000    
_IGNORE_UNDEF=  2.000000000000000    
_STRICTCHECK=  0.000000000000000    
!SEWARD=  0.000000000000000    
!MULTI=  0.000000000000000    
!DFMULTI=  0.000000000000000    
_SEW_ONEEL=  0.000000000000000    
_CPPDONE=FALSE
_DKROLL_DONE=  0.000000000000000    
_FNUC_DONE=  0.000000000000000    
_FOCKDONE=TRUE
_GRADONE=FALSE
_HESSDONE=TRUE
_INTDONE=TRUE
_SCFDONE=TRUE
_MODUL_BLOCK=FALSE
_MODUL_SLATER=FALSE
_MODUL_MRCC=FALSE
_MODUL_NBO6=FALSE
_MODUL_NECI=FALSE
_MODUL_AIMS=TRUE
_MODUL_HDF5=FALSE
_MODUL_GECCO=FALSE
_ISWINDOWS=FALSE
_MRCC_EXEC=
_FITC_AO_SAVED=  0.000000000000000    
_FITC_MO_SAVED=  0.000000000000000    
_SHARED_FS=TRUE
_LSTYP=SEWARD
_INTYP=INTS
_GEOMTYP=ZMAT
_GRADTYP=ALASKA
_DIRECT=FALSE
_DKHO= -1.000000000000000    
_FNUC=  0.000000000000000    
_SYNCM=  0.000000000000000    
_BASIS=6-311G(D,P)
_ZCENTRE=MASS
_ZORIENT=  1.000000000000000    
_NELEC=  10.00000000000000    
!SPIN=  0.000000000000000    
_OPTCONV= 0.4207076253016791E-07
_QSDSTEP=  0.000000000000000    
_QSDIRC=  0.000000000000000    
_PROGRAM=FREQ
_CPUSTEP=  0.000000000000000    
_SYSSTEP=  0.000000000000000    
_WALLSTEP= 0.1000000000000000E-01
!DFMP2=  0.000000000000000    
!DFSCF=  0.000000000000000    
!SCSGRD=  0.000000000000000    
_NCEN=  3.000000000000000    
_CPUTOT=  3.890000000000000    
_CPUCCSD=  0.000000000000000    
_SYSCCSD=  0.000000000000000    
_WALLCCSD=  0.000000000000000    
_CPUF12=  0.000000000000000    
_SYSF12=  0.000000000000000    
_WALLF12=  0.000000000000000    
_CPUF12B=  0.000000000000000    
_SYSF12B=  0.000000000000000    
_WALLF12B=  0.000000000000000    
_CPUTRANS= 0.9999999999999787E-02
_SYSTRANS=  0.000000000000000    
_WALLTRANS= 0.1000000163912773E-01
_DFTEXFAC=  1.000000000000000    
_DMX=  0.000000000000000    
_DMY=  0.000000000000000    
_DMZ= 0.8264694830134908    
_DMX_SCF=  0.000000000000000    
_DMY_SCF=  0.000000000000000    
_DMZ_SCF= 0.8642755361582860    
_FREQUENCIES= 0.3511298755720038E-04
_HOMO=  1.200000000000000    
_EHOMO=-0.5005006940843199    
_LUMO=  4.100000000000000    
_ELUMO= 0.1496927530893833    
_EMP2= -76.26397188977860    
_EMP2_SING=-0.1358029139509911    
_EMP2_TRIP=-0.8191595619240359E-01
_EMP2_SCS= -76.26018644467389    
_ECSING=-0.1358029139509911    
_ECTRIP=-0.8191595619240362E-01
_ENERGC= -76.26397188977860    
_ENERG_CC=  0.000000000000000    
_ENERG_CV=  0.000000000000000    
_ENERG_VV=-0.2177188701433947    
_ENERGR= -76.04625301963520    
_ENERGY= -76.26397188977860    
_ENERGY_METHOD=MP2
_ENERGY_BASIS=6-311G(D,P)
_GEOMETRY_METHOD=
_GEOMETRY_BASIS=
_ENUC=  9.194120665285844    
_FREQSTEP=  10.00000000000000    
_GRADENERG= -76.26393722978899    
_GRADEXFAC=  9999.000000000000    
_GRADMETHOD=  8.000000000000000    
_NMRMETHOD=  0.000000000000000    
_NMRMAGNET=  0.000000000000000    
_GRADRECORD=TRUE
_VIRIAL=-0.1377275003033567E-03
!GRID_FREEZE= -1.000000000000000    
!NEESE_INDEX=  0.000000000000000    
_ITERATIONS=  1.000000000000000    
_LASTNELEC=  10.00000000000000    
_LASTSPIN=  0.000000000000000    
_LASTSYM=  1.000000000000000    
_MPP_PROG=  1.000000000000000    
_MSNSTATES=  0.000000000000000    
_RS2PHASE=  0.000000000000000    
_IPROC_MPP=  0.000000000000000    
_IPROC_MPPX=  0.000000000000000    
_NPROC_MPP=  6.000000000000000    
_NPROC_MPPX=  6.000000000000000    
_NPROC_SMP=  6.000000000000000    
_NUMSTEP=  0.000000000000000    
_OPTCONVMX= 0.3379870349488999E-07
_OPTCONVRMS= 0.2428956599653713E-07
_OPTGRAD= 0.3763540481295281E-07
_OPTGRADMX= 0.2690339062638714E-07
_OPTGRADRMS= 0.1254513493765094E-07
_OPTSTEP=  5.000000000000000    
_ORBITAL=  2100.200000000000    
_PI=  3.141592653589793    
_ECDIAG=-0.6708122671643801E-01
_EPDIAG=-0.6708122671643801E-01
_SEIG_MIN= 0.1774921041073031E-01
_SEWPROP=TRUE
_STATUS=  1.000000000000000    
_SYSTOT= 0.5200000000000000    
_T1DIAG=  0.000000000000000    
_VERSION=  2022003.000000000    
_WALLTOT=  3.370000000000000    
_ZPE= 0.2183519062235201E-01
_DATE=25-Aug-25
_LASTORB=0
_METHODC=MP2
_OUTPUT=/home/lme/overlap_integral_gaussian/molpro_files/h2o/mp2/h2o_mp2.out
_PGROUP=C2v
_TIME=21:30:17
_ANSATZ=
_LIBMOL=/usr/local/molpro/molpro_2022.3.0_sockets/lib/
_VIGRDC=  0.000000000000000    
!VIBCNT=  0.000000000000000    
!RGHFCNT=  0.000000000000000    
!SURFREC=  0.000000000000000    
!XSURFREC=  0.000000000000000    
!XPOLYREC=  0.000000000000000    
!ROTREC=  0.000000000000000    
!POLYREC=  0.000000000000000    
!DIPREC=  0.000000000000000    
!DIP4DREC=  0.000000000000000    
!DIPROT=  0.000000000000000    
!DIP4DROT=  0.000000000000000    
!PTREC=  0.000000000000000    
!PT4DREC=  0.000000000000000    
!VSCFREC=  0.000000000000000    
!VCIREC=  0.000000000000000    
!PVCIREC=  0.000000000000000    
!VMP2REC=  0.000000000000000    
!VMCSCFREC=  0.000000000000000    
!VMRCIREC=  0.000000000000000    
!VIBSTATEREC=  0.000000000000000    
!VIBSTATECNT=  0.000000000000000    
!VIBINFO=  0.000000000000000    
!GAREC=  0.000000000000000    
!SCFORB=  21002.00000000000    
!CIOCC=  3.000000000000000    
!CICORE=  1.000000000000000    
!DEFCORE=  1.000000000000000    
!SCORE=  0.000000000000000    
!CICLOS=  3.000000000000000    
!CIISTSYM=  1.000000000000000    
!CIISTMS2=  0.000000000000000    
!CIISTNEL=  8.000000000000000    
!NEWMOL= -1.000000000000000    
!NEWSYM= -1.000000000000000    
_SLFILES=slscratch
_NGSSTO=  9.000000000000000    
_SIN=SIN
_COS=COS
_TAN=TAN
_ACOS=ACOS
_ASIN=ASIN
_ATAN=ATAN
_COSH=COSH
_SINH=SINH
_TANH=TANH
_ABS=ABS
_MOD=MOD
_ERF=ERF
_REFC=REFC
_ERFC=ERFC
_HYPOT=HYPOT
_J0=J0
_J1=J1
_JN=JN
_GAMMA=GAMMA
_LGAMMA=LGAMMA
_Y0=Y0
_Y1=Y1
_YN=YN
_EXP=EXP
_LOG=LOG
_LOG10=LOG10
_SQRT=SQRT
_INT=INT
_NINT=NINT
_MAX=MAX
_MIN=MIN
_COSMO=  0.000000000000000    
_COSMOIT=  0.000000000000000    
_COSMOES=  0.000000000000000    
_COSMOEDS=  0.000000000000000    
_COSMOEC=  0.000000000000000    
_COSMOEDCORR=  0.000000000000000    
_FEPSI=  1.000000000000000    
_SL_IsMM=  0.000000000000000    
_SL_NSYM=  4.000000000000000    
_SL_System_BitSw=  0.000000000000000    
_SL_Unique_atoms=  0.000000000000000    
_SL_GRAD=  0.000000000000000    
_SL_MAXUPD_Hess=  5.000000000000000    
_SL_N_PRINT_COD=  5.000000000000000    
_SL_PRINT_CODES=  0.000000000000000    
_SL_BasType=  0.000000000000000    
_SL_Energy_Pred=  0.000000000000000    
_SL_New_Coords=  0.000000000000000    
_SL_Total_Nuclea=  0.000000000000000    
_SL_Highest_Mltp=  0.000000000000000    
_SL_Ref_Geom=  0.000000000000000    
_SL_Symmetry_ope=  4.000000000000000    
_SL_agrad=  0.000000000000000    
_SL_GrdMax=  0.000000000000000    
_SL_GrdNorm=  0.000000000000000    
_SL_GrdRMS=  0.000000000000000    
_SL_Hss_Q=  0.000000000000000    
_SL_Hss_X=  0.000000000000000    
_SL_BMxOld=  0.000000000000000    
_SL_KtB=  0.000000000000000    
_SL_TROld=  0.000000000000000    
_SL_No_of_Intern=  0.000000000000000    
_SL_Hess=  0.000000000000000    
_SL_K=  0.000000000000000    
!LATTICE= -1.000000000000000    
!NEWLATTICE=  0.000000000000000    
!LATGRAD_VAR=FALSE
!SEW_LATTICE=  1.000000000000000    
!AIC_ONEEL=  0.000000000000000    
!LOCAL=  0.000000000000000    
!SAVEDOM= -1.000000000000000    
!RESTDOM= -1.000000000000000    
!SAVEDOM_HF= -1.000000000000000    
!RESTDOM_HF= -1.000000000000000    
!HESSREC=  5300.200000000000    
!FREQREC=  5400.200000000000    
!NMODREC=  5450.200000000000    
!GTASKS=  0.000000000000000    
!HTASKS=  0.000000000000000    
!SAVEDOM_EOM= -1.000000000000000    
!RESTDOM_EOM= -1.000000000000000    
!GRADSTATE= -1.000000000000000    
!DEBUG=  0.000000000000000    
!CFIT_CPHF=  0.000000000000000    
!RDOMAUX_CPHF=  0.000000000000000    
!THRAO_CPHF= 0.1000000000000000E-11
!THRMO_CPHF= 0.1000000000000000E-11
!THROV_CPHF= 0.1000000000000000E-11
!THRSW_CPHF= 0.1000000000000000E-11
!THRPROD_CPHF= 0.1000000000000000E-11
!THRAOPR_CPHF= 0.1000000000000000E-11
!CFIT_SCFGRD=  0.000000000000000    
!RDOMAUX_SCFGRD=  0.000000000000000    
!THRAO_SCFGRD= 0.1000000000000000E-11
!THRMO_SCFGRD= 0.1000000000000000E-11
!THROV_SCFGRD= 0.1000000000000000E-11
!THRSW_SCFGRD= 0.1000000000000000E-11
!THRPROD_SCFGRD= 0.1000000000000000E-11
!THRAOPR_SCFGRD= 0.1000000000000000E-11
!LOCFIT_SCF=  0.000000000000000    
!LOCFIT_MP2=  0.000000000000000    
_RIDOM=  0.000000000000000    
!CC2_METHOD=  0.000000000000000    
_BASIS2006=FALSE
_SVDDEL= -1.000000000000000    
_SVDDELA= -1.000000000000000    
_SVDDELP= -1.000000000000000    
_SVDDELF= -1.000000000000000    
_SVDDELS= -1.000000000000000    
_SVDDEL_ABS= -1.000000000000000    
_SVDDELA_ABS= -1.000000000000000    
_SVDDELP_ABS= -1.000000000000000    
_SVDDELF_ABS= -1.000000000000000    
_SVDDELS_ABS= -1.000000000000000    
_MAXBASIS=  0.000000000000000    
!OPT_CONICAL=  0.000000000000000    
!CLEARSP_JGRID=  0.000000000000000    
_GRDHYBR=  0.000000000000000    
_STATEGRAD=  1.000000000000000    
_4EXT_NDISKS=  1.000000000000000    
!EMBEDFLAG=  1.000000000000000    
!EMBED=FALSE
!EMBED_F12=FALSE
!EMBEDNUC=  0.000000000000000    
_EMBEDENERGY=  0.000000000000000    
!EMBED_DFC=FALSE
!NUM_VOIDS=  0.000000000000000    
_IBODY=  0.000000000000000    
_EMBE_CORR=  0.000000000000000    
!EMBED_PROJ=FALSE
!EMB_PROJ_ZMU=  1000000.000000000    
!CORRECTION_HF=  0.000000000000000    
!EMBED_AORB=  0.000000000000000    
!EMBED_NACORR=  0.000000000000000    
!EMBED_MP2=FALSE
!EMBED_TRUNC_PERTURBATION=FALSE
!EMBED_FROZEN=  0.000000000000000    
!EMBED_ACTIVE=  0.000000000000000    
_CHANGE_BASIS=FALSE
_RESTORE_BASIS=FALSE
_FIX_EMBED_GUESS=FALSE
_EMBED_SCF=FALSE
_HUZINAGA_T=FALSE
_HUZINAGA_F=FALSE
_HUZINAGA=FALSE
_HUZINAGA_CORRECT=FALSE
!FASTLATGRAD=  1.000000000000000    
!FASTVLAMBDA= -1.000000000000000    
!IFORCE= -1.000000000000000    
!USESYM= -1.000000000000000    
_SINDEX=  0.000000000000000    
_AVDOM_OSV=  0.000000000000000    
_AVDOM_PNO=  0.000000000000000    
_AVDOM_PAO=  0.000000000000000    
_AVDOM_LMO=  0.000000000000000    
_CC2OSV_FLAG=  0.000000000000000    
_EOMCCSD_CONV=FALSE
_TMADC2_FLAG=FALSE
_PROPADC2_FLAG=FALSE
_LEN_VirQ=  0.000000000000000    
_GRDCC2LR_FLAG=FALSE
_GRDADC2_FLAG=FALSE
_RO_VGLOBAL=  0.000000000000000    
_OPT=FALSE
_FREQ=FALSE
_HESS=FALSE
_CMRCC_callName=EMPTY
_CMRCC_callCount=  0.000000000000000    
_GECCO_CIROOT=  1.000000000000000    
_SYM_CATION=  2.000000000000000    
_MON_A=FALSE
_MON_B=FALSE
GX1=  0.000000000000000    
GY1= 0.7466663205840723    
GZ1= 0.5327730726975775    
GX2=  0.000000000000000    
GY2=  0.000000000000000    
GZ2=-0.6713911137873686E-01
GX3=  0.000000000000000    
GY3=-0.7466663205840723    
GZ3= 0.5327730726975775    
HX1=  0.000000000000000    
HY1=  1.410994852385922    
HZ1=  1.006795193973757    
OX2=  0.000000000000000    
OY2=  0.000000000000000    
OZ2=-0.1268745327565584    
HX3=  0.000000000000000    
HY3= -1.410994852385922    
HZ3=  1.006795193973757    
[Atoms] Angs
H     1    1         0.0000000000        0.7466663206        0.5327730727
O     2    8         0.0000000000        0.0000000000       -0.0671391114
H     3    1         0.0000000000       -0.7466663206        0.5327730727
[GTO]
   1 0
 s    3  1.00
  0.3386500000D+02  0.2549381454D-01
  0.5094790000D+01  0.1903731086D+00
  0.1158790000D+01  0.8521614860D+00
 s    1  1.00
  0.3258400000D+00  0.1000000000D+01
 s    1  1.00
  0.1027410000D+00  0.1000000000D+01
 p    1  1.00
  0.7500000000D+00  0.1000000000D+01
  
   3 0
 s    3  1.00
  0.3386500000D+02  0.2549381454D-01
  0.5094790000D+01  0.1903731086D+00
  0.1158790000D+01  0.8521614860D+00
 s    1  1.00
  0.3258400000D+00  0.1000000000D+01
 s    1  1.00
  0.1027410000D+00  0.1000000000D+01
 p    1  1.00
  0.7500000000D+00  0.1000000000D+01
  
   2 0
 s    6  1.00
  0.8588500000D+04  0.1895150083D-02
  0.1297230000D+04  0.1438590063D-01
  0.2992960000D+03  0.7073200310D-01
  0.8737710000D+02  0.2400010105D+00
  0.2567890000D+02  0.5947970261D+00
  0.3740040000D+01  0.2808020123D+00
 s    3  1.00
  0.4211750000D+02  0.1138890124D+00
  0.9628370000D+01  0.9208111006D+00
  0.2853320000D+01 -0.3274470358D-02
 s    1  1.00
  0.9056610000D+00  0.1000000000D+01
 s    1  1.00
  0.2556110000D+00  0.1000000000D+01
 p    3  1.00
  0.4211750000D+02  0.3651139738D-01
  0.9628370000D+01  0.2371529830D+00
  0.2853320000D+01  0.8197019412D+00
 p    1  1.00
  0.9056610000D+00  0.1000000000D+01
 p    1  1.00
  0.2556110000D+00  0.1000000000D+01
 d    1  1.00
  0.1292000000D+01  0.1000000000D+01


[MO]
 Sym=      1.1
 Ene=     -20.5461
 Spin= Alpha
 Occup=    2.000000
1 0.000204556439804
2 0.000112775760971
3 0.000089980513066
4 0.0
5 -0.000084646302895
6 -0.000031657562410
7 0.000204556439804
8 0.000112775760971
9 0.000089980513066
10 0.0
11 0.000084646302895
12 -0.000031657562410
13 0.55145077309743
14 0.47168806793541
15 0.005478205048666
16 -0.000472402533684
17 0.0
18 0.0
19 0.001803004768813
20 0.0
21 0.0
22 -0.000647173901149
23 0.0
24 0.0
25 0.000087511937010
26 0.000135319080138
27 -0.000113053698318
28 -0.000022265381820
29 0.0
30 0.0
31 0.0
 Sym=      2.1
 Ene=      -1.3428
 Spin= Alpha
 Occup=    2.000000
1 0.093898384166101
2 0.081227587394215
3 -0.002434569492343
4 0.0
5 -0.023446149576144
6 -0.015099525329272
7 0.093898384166101
8 0.081227587394215
9 -0.002434569492343
10 0.0
11 0.023446149576144
12 -0.015099525329272
13 -0.11340411966669
14 -0.18948604827392
15 0.53972466147698
16 0.37589050940123
17 0.0
18 0.0
19 0.037352228789941
20 0.0
21 0.0
22 0.062646255233601
23 0.0
24 0.0
25 0.020883686430373
26 -0.008022148277763
27 0.004742296739516
28 0.003279851538247
29 0.0
30 0.0
31 0.0
 Sym=      1.3
 Ene=      -0.7022
 Spin= Alpha
 Occup=    2.000000
1 0.14829019480406
2 0.21343009804237
3 0.059308220640573
4 0.0
5 -0.018171483612805
6 -0.026744094496764
7 -0.14829019480406
8 -0.21343009804237
9 -0.059308220640573
10 0.0
11 -0.018171483612805
12 0.026744094496764
13 0.0
14 0.0
15 0.0
16 0.0
17 0.0
18 0.22681321158362
19 0.0
20 0.0
21 0.34854889987344
22 0.0
23 0.0
24 0.21836947723101
25 0.0
26 0.0
27 0.0
28 0.0
29 0.0
30 0.0
31 0.029055129372099
 Sym=      3.1
 Ene=      -0.5760
 Spin= Alpha
 Occup=    2.000000
1 0.089250747108114
2 0.15356630694490
3 0.028929901808638
4 0.0
5 -0.030840772429105
6 0.007656104925569
7 0.089250747108114
8 0.15356630694490
9 0.028929901808638
10 0.0
11 0.030840772429105
12 0.007656104925569
13 0.038823642891506
14 0.065979976297377
15 -0.19943969693829
16 -0.34026779445746
17 0.0
18 0.0
19 0.25313299824026
20 0.0
21 0.0
22 0.37441809275738
23 0.0
24 0.0
25 0.33156684940210
26 -0.012741372649380
27 -0.004379077636811
28 0.017120450286191
29 0.0
30 0.0
31 0.0
 Sym=      1.2
 Ene=      -0.5005
 Spin= Alpha
 Occup=    2.000000
1 0.0
2 0.0
3 0.0
4 0.031022750149531
5 0.0
6 0.0
7 0.0
8 0.0
9 0.0
10 0.031022750149531
11 0.0
12 0.0
13 0.0
14 0.0
15 0.0
16 0.0
17 0.29222662259687
18 0.0
19 0.0
20 0.43726142919118
21 0.0
22 0.0
23 0.46606308430770
24 0.0
25 0.0
26 0.0
27 0.0
28 0.0
29 0.0
30 0.017184261529482
31 0.0
 Sym=      4.1
 Ene=       0.1497
 Spin= Alpha
 Occup=    0.000000
1 0.035232737444642
2 -0.070614585199453
3 0.83763180253186
4 0.0
5 0.006216550533640
6 -0.002886288020373
7 0.035232737444642
8 -0.070614585199453
9 0.83763180253186
10 0.0
11 -0.006216550533640
12 -0.002886288020373
13 0.033206778827274
14 0.054126949236178
15 -0.10255495271166
16 -0.83422047701637
17 0.0
18 0.0
19 -0.076042468453139
20 0.0
21 0.0
22 -0.11913221004131
23 0.0
24 0.0
25 -0.21039969201987
26 0.004918589071219
27 0.000075814659163
28 -0.004994403730382
29 0.0
30 0.0
31 0.0
 Sym=      2.3
 Ene=       0.2172
 Spin= Alpha
 Occup=    0.000000
1 0.026876230434370
2 -0.12307217404136
3 1.57242599935124
4 0.0
5 0.008333464041024
6 0.008524827163695
7 -0.026876230434370
8 0.12307217404136
9 -1.57242599935124
10 0.0
11 0.008333464041024
12 -0.008524827163695
13 0.0
14 0.0
15 0.0
16 0.0
17 0.0
18 -0.12353388851477
19 0.0
20 0.0
21 -0.13254636520057
22 0.0
23 0.0
24 -0.50271727258616
25 0.0
26 0.0
27 0.0
28 0.0
29 0.0
30 0.0
31 -0.004762547498224
 Sym=      3.3
 Ene=       0.5627
 Spin= Alpha
 Occup=    0.000000
1 0.084319212862516
2 1.42906652546557
3 -0.76114672228096
4 0.0
5 -0.020827961584628
6 0.003647298978128
7 -0.084319212862516
8 -1.42906652546557
9 0.76114672228096
10 0.0
11 -0.020827961584628
12 -0.003647298978128
13 0.0
14 0.0
15 0.0
16 0.0
17 0.0
18 -0.12108672636529
19 0.0
20 0.0
21 -0.18242327974124
22 0.0
23 0.0
24 -1.07854865023470
25 0.0
26 0.0
27 0.0
28 0.0
29 0.0
30 0.0
31 0.014765684950179
 Sym=      5.1
 Ene=       0.6192
 Spin= Alpha
 Occup=    0.000000
1 0.061920427605766
2 1.81860828668951
3 -0.62324754683583
4 0.0
5 -0.031567088528508
6 -0.037784512115263
7 0.061920427605766
8 1.81860828668951
9 -0.62324754683583
10 0.0
11 0.031567088528508
12 -0.037784512115263
13 0.033754156989253
14 0.059163374742336
15 -0.13695856304489
16 -1.37378795202336
17 0.0
18 0.0
19 -0.10420294881289
20 0.0
21 0.0
22 -0.19575072996595
23 0.0
24 0.0
25 -1.08060545817151
26 -0.002854742311435
27 0.013561555384035
28 -0.010706813072600
29 0.0
30 0.0
31 0.0
 Sym=      6.1
 Ene=       0.9991
 Spin= Alpha
 Occup=    0.000000
1 -0.032982950661617
2 -0.61340428587982
3 -0.097859066309505
4 0.0
5 0.14879648663758
6 0.11077185430449
7 -0.032982950661617
8 -0.61340428587982
9 -0.097859066309505
10 0.0
11 -0.14879648663758
12 0.11077185430449
13 -0.015201302831595
14 -0.028316805615506
15 0.061480873638355
16 0.94551159792242
17 0.0
18 0.0
19 -0.23282281860085
20 0.0
21 0.0
22 -0.73303774226927
23 0.0
24 0.0
25 1.60309437515202
26 -0.011980280243905
27 0.015054257278959
28 -0.003073977035054
29 0.0
30 0.0
31 0.0
 Sym=      2.2
 Ene=       1.0032
 Spin= Alpha
 Occup=    0.000000
1 0.0
2 0.0
3 0.0
4 -0.019930884734420
5 0.0
6 0.0
7 0.0
8 0.0
9 0.0
10 -0.019930884734420
11 0.0
12 0.0
13 0.0
14 0.0
15 0.0
16 0.0
17 -0.23997586408569
18 0.0
19 0.0
20 -0.83673141628762
21 0.0
22 0.0
23 1.15077049790504
24 0.0
25 0.0
26 0.0
27 0.0
28 0.0
29 0.0
30 -0.008231459654350
31 0.0
 Sym=      4.3
 Ene=       1.1105
 Spin= Alpha
 Occup=    0.000000
1 -0.014008970327505
2 -0.33709380571403
3 -0.78362801211469
4 0.0
5 0.16596752644515
6 0.14814935967824
7 0.014008970327505
8 0.33709380571403
9 0.78362801211469
10 0.0
11 0.16596752644515
12 -0.14814935967824
13 0.0
14 0.0
15 0.0
16 0.0
17 0.0
18 -0.24015425334285
19 0.0
20 0.0
21 -0.71750922229946
22 0.0
23 0.0
24 1.77951418421637
25 0.0
26 0.0
27 0.0
28 0.0
29 0.0
30 0.0
31 0.030045960865957
 Sym=      7.1
 Ene=       1.3157
 Spin= Alpha
 Occup=    0.000000
1 0.012926909618585
2 -0.88439069514474
3 -0.33522557646110
4 0.0
5 0.14802094516895
6 0.37744016592809
7 0.012926909618585
8 -0.88439069514474
9 -0.33522557646110
10 0.0
11 -0.14802094516895
12 0.37744016592809
13 0.099262983448413
14 0.20427398789788
15 -1.50243226324936
16 3.12930233072843
17 0.0
18 0.0
19 -0.029303579607683
20 0.0
21 0.0
22 0.15760799588189
23 0.0
24 0.0
25 0.62014874368753
26 -0.029373580366560
27 -0.004453644106772
28 0.033827224473332
29 0.0
30 0.0
31 0.0
 Sym=      8.1
 Ene=       1.4571
 Spin= Alpha
 Occup=    0.000000
1 -0.081258764318997
2 1.16675075998935
3 -0.017711302819429
4 0.0
5 -0.60901167310242
6 0.38828677001855
7 -0.081258764318997
8 1.16675075998935
9 -0.017711302819429
10 0.0
11 0.60901167310242
12 0.38828677001855
13 -0.035161490106035
14 -0.073122356868481
15 0.61879848611305
16 -2.04725270153176
17 0.0
18 0.0
19 -0.011595694388743
20 0.0
21 0.0
22 -0.10927081555070
23 0.0
24 0.0
25 -1.23989204109852
26 -0.003284858688444
27 -0.10621872290902
28 0.10950358159746
29 0.0
30 0.0
31 0.0
 Sym=      1.4
 Ene=       1.5219
 Spin= Alpha
 Occup=    0.000000
1 0.0
2 0.0
3 0.0
4 0.69071938542085
5 0.0
6 0.0
7 0.0
8 0.0
9 0.0
10 -0.69071938542085
11 0.0
12 0.0
13 0.0
14 0.0
15 0.0
16 0.0
17 0.0
18 0.0
19 0.0
20 0.0
21 0.0
22 0.0
23 0.0
24 0.0
25 0.0
26 0.0
27 0.0
28 0.0
29 0.12487359498110
30 0.0
31 0.0
 Sym=      3.2
 Ene=       1.7051
 Spin= Alpha
 Occup=    0.000000
1 0.0
2 0.0
3 0.0
4 0.76497851277348
5 0.0
6 0.0
7 0.0
8 0.0
9 0.0
10 0.76497851277348
11 0.0
12 0.0
13 0.0
14 0.0
15 0.0
16 0.0
17 -0.049042033676592
18 0.0
19 0.0
20 -0.051975424679866
21 0.0
22 0.0
23 -0.55409503071683
24 0.0
25 0.0
26 0.0
27 0.0
28 0.0
29 0.0
30 0.14643550875400
31 0.0
 Sym=      5.3
 Ene=       1.9368
 Spin= Alpha
 Occup=    0.000000
1 -0.19267309861598
2 0.73882480985297
3 -0.16478648075514
4 0.0
5 0.48495286351294
6 -0.65185265032624
7 0.19267309861598
8 -0.73882480985297
9 0.16478648075514
10 0.0
11 0.48495286351294
12 0.65185265032624
13 0.0
14 0.0
15 0.0
16 0.0
17 0.0
18 0.010391646093698
19 0.0
20 0.0
21 0.008456911635406
22 0.0
23 0.0
24 -0.88083083201183
25 0.0
26 0.0
27 0.0
28 0.0
29 0.0
30 0.0
31 -0.074704158680451
 Sym=      6.3
 Ene=       2.2379
 Spin= Alpha
 Occup=    0.000000
1 -0.67388439239617
2 0.67310213778934
3 -0.53510755204071
4 0.0
5 0.29431007097796
6 0.48681502161425
7 0.67388439239617
8 -0.67310213778934
9 0.53510755204071
10 0.0
11 0.29431007097796
12 -0.48681502161425
13 0.0
14 0.0
15 0.0
16 0.0
17 0.0
18 0.16984327033596
19 0.0
20 0.0
21 0.48141146673004
22 0.0
23 0.0
24 -0.002928598292087
25 0.0
26 0.0
27 0.0
28 0.0
29 0.0
30 0.0
31 -0.23349501095612
 Sym=      9.1
 Ene=       2.3929
 Spin= Alpha
 Occup=    0.000000
1 0.88495275666607
2 -1.08487924105646
3 0.41092777535074
4 0.0
5 -0.29228144075580
6 -0.14493003483137
7 0.88495275666607
8 -1.08487924105646
9 0.41092777535074
10 0.0
11 0.29228144075580
12 -0.14493003483137
13 0.030232844146913
14 0.056615764642404
15 -0.24385291278576
16 0.12903597858971
17 0.0
18 0.0
19 -0.16756799670233
20 0.0
21 0.0
22 -0.24696042382909
23 0.0
24 0.0
25 0.23279546774660
26 -0.28419240045382
27 0.19364409765208
28 0.090548302801740
29 0.0
30 0.0
31 0.0
 Sym=     10.1
 Ene=       2.5944
 Spin= Alpha
 Occup=    0.000000
1 0.56144362280437
2 -1.98363205910451
3 0.26691902202875
4 0.0
5 0.87780749370744
6 0.68443475398604
7 0.56144362280437
8 -1.98363205910451
9 0.26691902202875
10 0.0
11 -0.87780749370744
12 0.68443475398604
13 -0.055345583121387
14 -0.12925840924087
15 0.90096954017298
16 1.78240809322928
17 0.0
18 0.0
19 0.022171645283092
20 0.0
21 0.0
22 0.68765539379144
23 0.0
24 0.0
25 0.75581768820550
26 0.012911122350997
27 -0.001265911547165
28 -0.011645210803832
29 0.0
30 0.0
31 0.0
 Sym=      7.3
 Ene=       2.7871
 Spin= Alpha
 Occup=    0.000000
1 -0.79209294803134
2 2.08062668985626
3 -0.52954012482275
4 0.0
5 -0.89863110533130
6 -0.63280615638010
7 0.79209294803134
8 -2.08062668985626
9 0.52954012482275
10 0.0
11 -0.89863110533130
12 0.63280615638010
13 0.0
14 0.0
15 0.0
16 0.0
17 0.0
18 -0.011731734188279
19 0.0
20 0.0
21 -0.87791739006336
22 0.0
23 0.0
24 -0.64863923757406
25 0.0
26 0.0
27 0.0
28 0.0
29 0.0
30 0.0
31 -0.23138066388224
 Sym=      4.2
 Ene=       3.5053
 Spin= Alpha
 Occup=    0.000000
1 0.0
2 0.0
3 0.0
4 -0.36098842528731
5 0.0
6 0.0
7 0.0
8 0.0
9 0.0
10 -0.36098842528731
11 0.0
12 0.0
13 0.0
14 0.0
15 0.0
16 0.0
17 0.019678978768024
18 0.0
19 0.0
20 -0.014394834457197
21 0.0
22 0.0
23 0.26964899433579
24 0.0
25 0.0
26 0.0
27 0.0
28 0.0
29 0.0
30 1.03603771588342
31 0.0
 Sym=      2.4
 Ene=       3.5434
 Spin= Alpha
 Occup=    0.000000
1 0.0
2 0.0
3 0.0
4 -0.33720450484572
5 0.0
6 0.0
7 0.0
8 0.0
9 0.0
10 0.33720450484572
11 0.0
12 0.0
13 0.0
14 0.0
15 0.0
16 0.0
17 0.0
18 0.0
19 0.0
20 0.0
21 0.0
22 0.0
23 0.0
24 0.0
25 0.0
26 0.0
27 0.0
28 0.0
29 1.05184149530651
30 0.0
31 0.0
 Sym=     11.1
 Ene=       3.7216
 Spin= Alpha
 Occup=    0.000000
1 -0.016822253956570
2 -0.39521879669551
3 0.025344913507389
4 0.0
5 0.34464023262764
6 -0.26621654501885
7 -0.016822253956570
8 -0.39521879669551
9 0.025344913507389
10 0.0
11 -0.34464023262764
12 -0.26621654501885
13 0.000599994766043
14 0.001720700525150
15 -0.068320997707779
16 0.59020705400383
17 0.0
18 0.0
19 0.031250973519193
20 0.0
21 0.0
22 0.011090638820742
23 0.0
24 0.0
25 0.55189135038524
26 -0.34125172109012
27 -0.72239016706800
28 1.06364188815812
29 0.0
30 0.0
31 0.0
 Sym=     12.1
 Ene=       3.9977
 Spin= Alpha
 Occup=    0.000000
1 0.31486180220222
2 1.09498294210323
3 0.045368975295383
4 0.0
5 -0.57457049918813
6 -0.46473519185980
7 0.31486180220222
8 1.09498294210323
9 0.045368975295383
10 0.0
11 0.57457049918813
12 -0.46473519185980
13 0.022093707048478
14 0.043858961895185
15 -0.11613896999924
16 -2.05382839669806
17 0.0
18 0.0
19 -0.30835191940973
20 0.0
21 0.0
22 -0.12916278297506
23 0.0
24 0.0
25 -0.99289875174711
26 1.05293998897030
27 -0.84959466577885
28 -0.20334532319145
29 0.0
30 0.0
31 0.0
 Sym=      8.3
 Ene=       4.2739
 Spin= Alpha
 Occup=    0.000000
1 -0.40658472243318
2 -0.50185978710710
3 -0.23065342586530
4 0.0
5 0.46069777283800
6 0.37015907400827
7 0.40658472243318
8 0.50185978710710
9 0.23065342586530
10 0.0
11 0.46069777283800
12 -0.37015907400827
13 0.0
14 0.0
15 0.0
16 0.0
17 0.0
18 0.45200377282038
19 0.0
20 0.0
21 -0.036547515990251
22 0.0
23 0.0
24 0.91345729847134
25 0.0
26 0.0
27 0.0
28 0.0
29 0.0
30 0.0
31 1.15666763816139
 Sym=      5.2
 Ene=       5.3258
 Spin= Alpha
 Occup=    0.000000
1 0.0
2 0.0
3 0.0
4 0.058554627184521
5 0.0
6 0.0
7 0.0
8 0.0
9 0.0
10 0.058554627184521
11 0.0
12 0.0
13 0.0
14 0.0
15 0.0
16 0.0
17 1.27045541662326
18 0.0
19 0.0
20 -1.37388426293463
21 0.0
22 0.0
23 0.48141298846373
24 0.0
25 0.0
26 0.0
27 0.0
28 0.0
29 0.0
30 -0.028436441654784
31 0.0
 Sym=     13.1
 Ene=       5.7626
 Spin= Alpha
 Occup=    0.000000
1 0.28800545842141
2 0.49221018212503
3 0.013580718407375
4 0.0
5 -0.46163077144304
6 -0.28010493641578
7 0.28800545842141
8 0.49221018212503
9 0.013580718407375
10 0.0
11 0.46163077144304
12 -0.28010493641578
13 0.022553270261526
14 0.042290032757379
15 -0.22394603055080
16 -1.01314374752504
17 0.0
18 0.0
19 1.26280478864553
20 0.0
21 0.0
22 -1.72447592811348
23 0.0
24 0.0
25 0.085016605561160
26 0.36445552092575
27 -0.24936708926214
28 -0.11508843166361
29 0.0
30 0.0
31 0.0
 Sym=      9.3
 Ene=       6.1762
 Spin= Alpha
 Occup=    0.000000
1 -0.34401394948107
2 -0.48889643367870
3 0.15226879044280
4 0.0
5 0.50866844546906
6 0.46661219518710
7 0.34401394948107
8 0.48889643367870
9 -0.15226879044280
10 0.0
11 0.50866844546906
12 -0.46661219518710
13 0.0
14 0.0
15 0.0
16 0.0
17 0.0
18 -1.25407282381949
19 0.0
20 0.0
21 1.98366688044965
22 0.0
23 0.0
24 -0.15987228119690
25 0.0
26 0.0
27 0.0
28 0.0
29 0.0
30 0.0
31 0.65189142738725
 Sym=     14.1
 Ene=      51.5492
 Spin= Alpha
 Occup=    0.000000
1 0.005487392980940
2 0.064922826351696
3 -0.030394701838401
4 0.0
5 -0.057244445212779
6 -0.045607291412648
7 0.005487392980940
8 0.064922826351696
9 -0.030394701838401
10 0.0
11 0.057244445212779
12 -0.045607291412648
13 -2.24715114376167
14 2.33604592949009
15 -0.26618973734767
16 0.074929577441178
17 0.0
18 0.0
19 0.018432559203339
20 0.0
21 0.0
22 -0.071461619586884
23 0.0
24 0.0
25 -0.009099412717346
26 0.022937446660709
27 -0.018734257894772
28 -0.004203188765937
29 0.0
30 0.0
31 0.0
 [FREQ]
      0.00
      0.00
      0.00
      0.00
      0.00
      0.00
   1667.26
   3904.75
   4012.53
 [FR-COORD]
H          0.0000000000        1.4109948524        1.0067951940
O          0.0000000000        0.0000000000       -0.1268745328
H          0.0000000000       -1.4109948524        1.0067951940
 [FR-NORM-COORD]
 Vibration                    1
          0.00000000          0.14991921          0.14158548
         -0.01807294          0.23812437          0.03180305
         -0.00000000          0.14991921         -0.07797939
 Vibration                    2
         -0.20723945          0.00000000          0.00000000
          0.00000000          0.00000000          0.00000000
          0.97431389          0.00000000          0.00000000
 Vibration                    3
          0.97431389         -0.00000000         -0.00000000
         -0.00000000         -0.00000000         -0.00000000
          0.20723945         -0.00000000         -0.00000000
 Vibration                    4
          0.00000000         -0.01309331         -0.00063988
          0.24334376          0.02384730         -0.04661713
          0.00000000         -0.01309331         -0.09259438
 Vibration                    5
          0.00000000          0.15696492         -0.01931856
          0.05419131         -0.02651010          0.20903922
          0.00000000          0.15696492          0.43739701
 Vibration                    6
         -0.00000000         -0.41083625          0.59197982
          0.00635406         -0.00989423          0.09295695
         -0.00000000         -0.41083625         -0.40606592
 Vibration                    7
          0.00000000         -0.41941193          0.53326829
          0.00000000          0.00000000         -0.06720152
          0.00000000          0.41941193          0.53326829
 Vibration                    8