
 Working directory              : /tmp/zwa/molpro.L8LS0hPSqu/
 Global scratch directory       : /tmp/zwa/molpro.L8LS0hPSqu/
 Wavefunction directory         : /home/zwa/wfu/
 Main file repository           : /tmp/zwa/molpro.L8LS0hPSqu/

 id        : liedlgroup

 Nodes     nprocs
 rh2-c724     6
 GA implementation: MPI file
 GA implementation (serial work in mppx): MPI file

 Using customized tuning parameters: mindgm=1; mindgv=20; mindgc=4; mindgr=1; noblas=0; minvec=7
 default implementation of scratch files=sf  


 Variables initialized (1015), CPU time= 0.01 sec
 memory,1000,m
 orient,mass
 geometry = {
  C,                 -6.78414507 ,  -0.97401882  , -0.10156568
  H,                 -6.42749065 ,  -1.98282882  , -0.10156568
  H,                 -6.42747223 ,  -0.46962063  , -0.97521718
  H,                 -7.85414507 ,  -0.97400563  , -0.10156568
  O,                 -6.30747016 ,  -0.29991656  ,  1.06602465
  H,                -5.74545685  , -0.97175700   , 1.27419342
  O,                 -3.32679232 ,  -2.81789314  ,  1.72252816
  H,                 -2.66052005 ,  -2.67939335  ,  1.04540256
  H,                 -3.04301020 ,  -3.52006152  ,  2.31246653
 }
 mass,iso
 basis=6-311g(d,p)
 {hf
 start,atden}
 
 optg
 {frequencies, symm=auto,print=0,analytical}
 put,molden,methanowateracceptor.molden
 Commands initialized (834), CPU time= 0.00 sec, 672 directives.
 Default parameters read. Elapsed time= 0.10 sec

 Checking input...
 Passed
1


                                         ***  PROGRAM SYSTEM MOLPRO  ***
                                       Copyright, TTI GmbH Stuttgart, 2015
                                    Version 2022.2 linked Thu Sep 29 12:37:28 2022


 **********************************************************************************************************************************
 LABEL *                                                                                 
  (8 PROC) 64 bit mpp version                                                            DATE: 25-Aug-25          TIME: 15:07:38  
 **********************************************************************************************************************************

 SHA1:             51306cdc306ce2a111a2867affebcb289530e0a7
 **********************************************************************************************************************************

 Memory per process:      1000 MW
 Total memory per node:   6000 MW

 GA preallocation disabled
 GA check disabled

 Variable memory set to 1000.0 MW

 ZCENTRE=MASS


 Geometry recognized as XYZ



 Using masses of most abundant isotopes

 **********************************************************************************************************************************
 SETTING BASIS          =    6-311G(D,P)


 Recomputing integrals since basis changed


 Using spherical harmonics

 Library entry C      S 6-311G               selected for orbital group  1
 Library entry C      P 6-311G               selected for orbital group  1
 Library entry C      D 6-311G*              selected for orbital group  1
 Library entry H      S 6-311G               selected for orbital group  2
 Library entry H      P 6-311G**             selected for orbital group  2
 Library entry O      S 6-311G               selected for orbital group  3
 Library entry O      P 6-311G               selected for orbital group  3
 Library entry O      D 6-311G*              selected for orbital group  3


 PROGRAM * SEWARD (Integral evaluation for generally contracted gaussian basis sets)     Author: Roland Lindh, 1990

 Geometry written to block  1 of record 700

 Orientation using atomic masses  
 Molecule type: Asymmetric top
 Rotational constants:       2.3397140      2.5066974     25.7554702 GHz

 Point group  C1  



 ATOMIC COORDINATES

 NR  ATOM    CHARGE       X              Y              Z

   1  C       6.00   -0.030777789   -1.235220938   -3.226365223
   2  H       1.00   -0.735016399   -2.359484303   -1.700392761
   3  H       1.00    1.833952929   -1.848800545   -3.710938753
   4  H       1.00   -1.245375806   -1.438879134   -4.830044467
   5  O       8.00    0.041531488    1.359494940   -2.474905734
   6  H       1.00   -0.274838768    0.976937386   -0.847597592
   7  O       8.00   -0.023529601   -0.088726835    4.860333721
   8  H       1.00    1.586723239   -0.788391873    5.317113757
   9  H       1.00   -1.084682259   -0.001823794    6.329175531

 Bond lengths in Bohr (Angstrom)

 1-2  2.022006946  1-3  2.022006947  1-4  2.022006954  1-5  2.702308362  5-6  1.701344237
     ( 1.069999996)     ( 1.069999996)     ( 1.070000000)     ( 1.430000002)     ( 0.900312598)

 7-8  1.814137087  7-9  1.814137085
     ( 0.960000004)     ( 0.960000003)

 Bond angles

  1-5-6   92.58493727   2-1-3  109.47120272   2-1-4  109.47123145   2-1-5  109.47120297

  3-1-4  109.47121818   3-1-5  109.47125071   4-1-5  109.47121778   8-7-9  109.49999900

 NUCLEAR CHARGE:                   28
 NUMBER OF PRIMITIVE AOS:         144
 NUMBER OF SYMMETRY AOS:          141
 NUMBER OF CONTRACTIONS:           90   (   90A   )
 NUMBER OF INNER CORE ORBITALS:     0   (    0A   )
 NUMBER OF OUTER CORE ORBITALS:     3   (    3A   )
 NUMBER OF VALENCE ORBITALS:       18   (   18A   )


 NUCLEAR REPULSION ENERGY   72.94485790


 Eigenvalues of metric

         1 0.781E-02 0.181E-01 0.189E-01 0.207E-01 0.209E-01 0.367E-01 0.391E-01 0.415E-01


 Contracted 2-electron integrals neglected if value below      1.0D-11
 AO integral compression algorithm  1   Integral accuracy      1.0D-11

     23.069 MB (compressed) written to integral file ( 31.5%)

     Node minimum: 3.670 MB, node maximum: 4.194 MB


 NUMBER OF SORTED TWO-ELECTRON INTEGRALS:    1397418.     BUFFER LENGTH:  32768
 NUMBER OF SEGMENTS:   1  SEGMENT LENGTH:    1397418      RECORD LENGTH: 524288

 Memory used in sort:       1.95 MW

 SORT1 READ     9023374. AND WROTE      794184. INTEGRALS IN      3 RECORDS. CPU TIME:     0.11 SEC, REAL TIME:     0.12 SEC
 SORT2 READ     4661947. AND WROTE     8386560. INTEGRALS IN     84 RECORDS. CPU TIME:     0.04 SEC, REAL TIME:     0.04 SEC

 Node minimum:     1396054.  Node maximum:     1399467. integrals

 OPERATOR DM      FOR CENTER  0  COORDINATES:    0.000000    0.000000    0.000000


 **********************************************************************************************************************************
 DATASETS  * FILE   NREC   LENGTH (MB)   RECORD NAMES
              1      18       29.00       500      610      700      900      950      970     1000      129      960     1100   
                                          VAR    BASINP    GEOM    SYMINP    ZMAT    AOBASIS   BASIS     P2S    ABASIS      S 
                                         1400     1410     1200     1210     1080     1600     1650     1700   
                                           T        V       H0       H01     AOSYM     SMH    MOLCAS    OPER   

 PROGRAMS   *        TOTAL       INT
 CPU TIMES  *         0.75      0.60
 REAL TIME  *         1.14 SEC
 DISK USED  *        29.40 MB (local),      265.83 MB (total)
 GA USED    *         0.00 MB       (max)       0.00 MB       (current)
 **********************************************************************************************************************************


 Program * Restricted Hartree-Fock

 Orbital guess generated from atomic densities.

 Initial occupancy:  14

 NELEC=   28   SYM=1   MS2= 0   THRE=1.0D-08   THRD=1.0D-06   THRG=1.0D-06  HFMA2=F  DIIS_START=2   DIIS_MAX=10   DIIS_INCORE=F

 Level shifts:    0.00 (CLOSED)    0.00 (OPEN)    0.30 (GAP_MIN)

 ITER           ETOT              DE          GRAD        DDIFF     DIIS  NEXP   TIME(IT)  TIME(TOT)  DIAG
   1     -191.03758063    -191.03758063     0.00D+00     0.47D-01     0     0       0.06      0.20    start
   2     -191.09501166      -0.05743103     0.91D-02     0.66D-02     1     0       0.25      0.45    diag
   3     -191.11100475      -0.01599310     0.49D-02     0.22D-02     2     0       0.21      0.66    diag
   4     -191.11166511      -0.00066036     0.70D-03     0.57D-03     3     0       0.22      0.88    diag
   5     -191.11171104      -0.00004593     0.16D-03     0.19D-03     4     0       0.21      1.09    diag
   6     -191.11171326      -0.00000221     0.42D-04     0.38D-04     5     0       0.20      1.29    diag
   7     -191.11171357      -0.00000031     0.16D-04     0.13D-04     6     0       0.19      1.48    diag
   8     -191.11171359      -0.00000002     0.29D-05     0.36D-05     7     0       0.23      1.71    fixocc
   9     -191.11171359      -0.00000000     0.62D-06     0.74D-06     8     0       0.22      1.93    diag
  10     -191.11171359      -0.00000000     0.17D-06     0.17D-06     0     0       0.29      2.22    diag/orth

 Final occupancy:  14

 !RHF STATE 1.1 Energy               -191.111713590348
  RHF One-electron energy            -406.920144255353
  RHF Two-electron energy             142.863572762965
  RHF Kinetic energy                  191.294988444574
  RHF Nuclear energy                   72.944857902041
  RHF Virial quotient                  -0.999041925480

 !RHF STATE 1.1 Dipole moment           0.07635354    -0.98065936     1.23949897
 Dipole moment /Debye                   0.19407134    -2.49258747     3.15049214

 Orbital energies:

           1.1          2.1          3.1          4.1          5.1          6.1          7.1          8.1          9.1         10.1
    -20.557219   -20.524916   -11.253035    -1.359979    -1.349710    -0.917763    -0.727664    -0.688799    -0.613185    -0.576171

          11.1         12.1         13.1         14.1         15.1         16.1
     -0.570768    -0.511809    -0.508018    -0.437447     0.131200     0.177566


 HOMO     14.1    -0.437447 =     -11.9035eV
 LUMO     15.1     0.131200 =       3.5701eV
 LUMO-HOMO         0.568647 =      15.4737eV

 Orbitals saved in record  2100.2


 **********************************************************************************************************************************
 DATASETS  * FILE   NREC   LENGTH (MB)   RECORD NAMES
              1      18       29.00       500      610      700      900      950      970     1000      129      960     1100   
                                          VAR    BASINP    GEOM    SYMINP    ZMAT    AOBASIS   BASIS     P2S    ABASIS      S 
                                         1400     1410     1200     1210     1080     1600     1650     1700   
                                           T        V       H0       H01     AOSYM     SMH    MOLCAS    OPER   

              2       4        0.61       700     1000      520     2100   
                                         GEOM     BASIS   MCVARS     RHF  

 PROGRAMS   *        TOTAL    HF-SCF       INT
 CPU TIMES  *         3.01      2.26      0.60
 REAL TIME  *         2.04 SEC
 DISK USED  *        30.19 MB (local),      270.55 MB (total)
 GA USED    *         0.00 MB       (max)       0.00 MB       (current)
 **********************************************************************************************************************************


 PROGRAM * OPT (Geometry optimization)     Authors: F. Eckert and H.-J. Werner


 BFGS update of hessian

 *** Long output written to logfile /home/zwa/Overlap_Integral_Project/overlap_integral_gaussian/molpro_files/methanolwaterdimer/methanolwateracceptor.log ***


 Geometry optimization using default procedure for command HF-SCF

 Geometry written to block  1 of record 700

 Making model hessian for cartesian coordinates

 Entering Rational Function Geometry Optimization

 ITER.   ENERGY(OLD)    ENERGY(NEW)      DE          GRADMAX     GRADNORM    GRADRMS     STEPMAX     STEPLEN     STEPRMS   CPU-time
   1  -191.11171359  -191.12344649    -0.01173290  0.05651671  0.09690866  0.00461470  0.15413021  0.30000000  0.10000000      4.48
   2  -191.12344649  -191.12562073    -0.00217424  0.02134774  0.03149219  0.00149963  0.21293762  0.30000000  0.10000000      9.10
   3  -191.12562073  -191.12649429    -0.00087356  0.01695543  0.01972555  0.00093931  0.29157620  0.30000000  0.10000000     13.71
   4  -191.12649429  -191.12730816    -0.00081387  0.01107909  0.01354196  0.00064486  0.28428216  0.30000000  0.10000000     18.63
   5  -191.12730816  -191.12812751    -0.00081935  0.00710111  0.01040336  0.00049540  0.28611011  0.30000000  0.10000000     23.17
   6  -191.12812751  -191.12895078    -0.00082327  0.00445746  0.00800428  0.00038116  0.28759277  0.30000000  0.10000000     27.47
   7  -191.12895078  -191.12970469    -0.00075391  0.00341427  0.00699875  0.00033327  0.26364538  0.30000000  0.10000000     31.89
   8  -191.12970469  -191.13032504    -0.00062035  0.00624902  0.00952904  0.00045376  0.24821879  0.30000000  0.10000000     36.76
   9  -191.13032504  -191.13072643    -0.00040139  0.01233238  0.01715833  0.00081706  0.25113011  0.30000000  0.10000000     41.53
  10  -191.13072643  -191.13102202    -0.00029560  0.00946415  0.01611047  0.00076717  0.27731121  0.30000000  0.10000000     46.51
  11  -191.13102202  -191.13114189    -0.00011987  0.00620843  0.00774611  0.00036886  0.17883475  0.30000000  0.10000000     51.21
  12  -191.13114189  -191.13131949    -0.00017760  0.01118293  0.01413994  0.00067333  0.10800308  0.18881184  0.06293728     56.09
  13  -191.13131949  -191.13145598    -0.00013649  0.00606514  0.00992096  0.00047243  0.20615865  0.30000000  0.10000000     60.67
  14  -191.13145598  -191.13154336    -0.00008737  0.00536231  0.00721800  0.00034371  0.12897268  0.16477710  0.05492570     65.54
  15  -191.13154336  -191.13159442    -0.00005106  0.00257131  0.00399657  0.00019031  0.15714174  0.20773774  0.06924591     70.50
  16  -191.13159442  -191.13155048     0.00004394  0.00336007  0.00475585  0.00022647  0.24010175  0.29279241  0.09759747     75.66
  17  -191.13155048  -191.13165048    -0.00010000  0.00676606  0.01104696  0.00052605  0.13024691  0.15423041  0.05141014     80.48
  18  -191.13165048  -191.13167260    -0.00002212  0.00089106  0.00173120  0.00008244  0.07871749  0.11653346  0.03884449     85.06
  19  -191.13167260  -191.13169018    -0.00001758  0.00212636  0.00300908  0.00014329  0.08776809  0.11810119  0.03936706     89.55
  20  -191.13169018  -191.13171614    -0.00002595  0.00317930  0.00440683  0.00020985  0.07399224  0.10325016  0.03441672     94.33
  21  -191.13171614  -191.13175019    -0.00003406  0.00260834  0.00401961  0.00019141  0.12108631  0.15460530  0.05153510     99.12
  22  -191.13175019  -191.13168115     0.00006904  0.00189631  0.00341187  0.00016247  0.12535658  0.18911110  0.06303703    103.79
  23  -191.13168115  -191.13177270    -0.00009155  0.01231110  0.01698430  0.00080878  0.08982946  0.12770297  0.04256766    108.70
  24  -191.13177270  -191.13177490    -0.00000220  0.00249189  0.00354549  0.00016883  0.17657751  0.19051921  0.06350640    113.96
  25  -191.13177490  -191.13179267    -0.00001776  0.00158869  0.00214858  0.00010231  0.08708551  0.09626423  0.03208808    118.53
  26  -191.13179267  -191.13180092    -0.00000825  0.00081795  0.00114105  0.00005434  0.03543486  0.05375623  0.01791874    123.43
  27  -191.13180092  -191.13180695    -0.00000603  0.00146389  0.00212993  0.00010143  0.07676078  0.12568451  0.04189484    128.30
  28  -191.13180695  -191.13181718    -0.00001024  0.00406913  0.00544551  0.00025931  0.03003622  0.04165819  0.01388606    132.94
  29  -191.13181718  -191.13182375    -0.00000657  0.00070405  0.00127275  0.00006061  0.03879906  0.05204723  0.01734908    137.71
  30  -191.13182375  -191.13182585    -0.00000210  0.00048009  0.00083660  0.00003984  0.07211924  0.10898267  0.03632756    142.18
  31  -191.13182585  -191.13183013    -0.00000427  0.00241396  0.00349492  0.00016642  0.04022597  0.05069318  0.01689773    146.99
  32  -191.13183013  -191.13183172    -0.00000159  0.00045567  0.00061265  0.00002917  0.02809493  0.03386359  0.01128786    151.77
  33  -191.13183172  -191.13183288    -0.00000116  0.00018204  0.00027241  0.00001297  0.05516168  0.07148446  0.02382815    156.50
  34  -191.13183288  -191.13183392    -0.00000104  0.00101131  0.00129999  0.00006190  0.01405108  0.01791997  0.00597332    161.16
  35  -191.13183392  -191.13183432    -0.00000040  0.00025616  0.00028471  0.00001356  0.02691211  0.03527729  0.01175910    165.96

 END OF GEOMETRY OPTIMIZATION.

 Geometry written to block  1 of record 700

 Recomputing wavefunction for reoriented structure

 Current geometry (xyz format, in Angstrom)

    9
 HF-SCF000/6-311G(D,P)  ENERGY=-191.13183432
 C         -0.0012285486       -0.4973074108       -1.6001058185
 H         -0.8824214705       -1.1138530819       -1.4256327985
 H          0.8829990855       -1.1120816336       -1.4348034955
 H         -0.0068487577       -0.1878529692       -2.6383161540
 O          0.0016593469        0.6521820865       -0.8103672001
 H          0.0012167358        0.4002946618        0.0989702326
 O         -0.0016383422       -0.1653574209        2.0323466001
 H          0.7626338141        0.0820740437        2.5242055703
 H         -0.7432846481        0.1265145732        2.5340682452

 **********************************************************************************************************************************


 **********************************************************************************************************************************
 DATASETS  * FILE   NREC   LENGTH (MB)   RECORD NAMES
              1      18       29.00       500      610      700      900      950      970     1000      129      960     1100   
                                          VAR    BASINP    GEOM    SYMINP    ZMAT    AOBASIS   BASIS     P2S    ABASIS      S 
                                         1400     1410     1200     1210     1080     1600     1650     1700   
                                           T        V       H0       H01     AOSYM     SMH    MOLCAS    OPER   

              2       4        0.61       700     1000      520     2100   
                                         GEOM     BASIS   MCVARS     RHF  

 PROGRAMS   *        TOTAL      OPTG    HF-SCF       INT
 CPU TIMES  *       171.86    168.85      2.26      0.60
 REAL TIME  *        86.64 SEC
 DISK USED  *        30.19 MB (local),      274.85 MB (total)
 SF USED    *         0.12 MB
 GA USED    *         0.00 MB       (max)       0.00 MB       (current)
 **********************************************************************************************************************************


 PROGRAM * HESSIAN

 PROGRAM * MCKINLEY (Hessian of the energy)     Author: A. Bernhardsson, R. Lindh

 Orbitals from record         2100.2

 Number of closed-shell orbitals: 14 ( 14 )
 Number of occupied orbitals:     14 ( 14 )

 Number of electrons= 28     Singlet     Space symmetry=1      Wavefunction type: CLOSED          


 McKinley needed    143.28 seconds of CPU time

 Entering CPHF calculation

 CPHF needed 212 iterations for 27 perturbations.  Total CPU time:   36.50 sec


 HF-SCF hessian saved to record  5300.2

 PROGRAM * FREQUENCIES (Calculation of harmonic vibrational spectra for HF-SCF)


 Permanent Dipole Moment [debye]
   1-  3    0.000000    0.000000    0.000000

 Dipole Moment Norm    0.0000000 [debye]

 Dipole Moment Derivatives [debye/ang]
              1             2             3             4             5             6             7             8
    1    0.00000000    0.00000000    0.00000000    0.00000000    0.00000000    0.00000000    0.00000000    0.00000000
    2    0.00000000    0.00000000    0.00000000    0.00000000    0.00000000    0.00000000    0.00000000    0.00000000
    3    0.00000000    0.00000000    0.00000000    0.00000000    0.00000000    0.00000000    0.00000000    0.00000000
              9            10            11            12            13            14            15            16
    1    0.00000000    0.00000000    0.00000000    0.00000000    0.00000000    0.00000000    0.00000000    0.00000000
    2    0.00000000    0.00000000    0.00000000    0.00000000    0.00000000    0.00000000    0.00000000    0.00000000
    3    0.00000000    0.00000000    0.00000000    0.00000000    0.00000000    0.00000000    0.00000000    0.00000000
             17            18            19            20            21            22            23            24
    1    0.00000000    0.00000000    0.00000000    0.00000000    0.00000000    0.00000000    0.00000000    0.00000000
    2    0.00000000    0.00000000    0.00000000    0.00000000    0.00000000    0.00000000    0.00000000    0.00000000
    3    0.00000000    0.00000000    0.00000000    0.00000000    0.00000000    0.00000000    0.00000000    0.00000000
             25            26            27
    1    0.00000000    0.00000000    0.00000000
    2    0.00000000    0.00000000    0.00000000
    3    0.00000000    0.00000000    0.00000000

 Projecting out rotations and translations

 Force Constants (Second Derivatives of the Energy) in [a.u.]
                             CX1         CY1         CZ1         HX2         HY2     
           CX1           0.6190654
           CY1          -0.0000543   0.5927336
           CZ1          -0.0000128  -0.0403401   0.6526678
           HX2          -0.2408432  -0.1134247   0.0423894   0.2539376
           HY2          -0.1096310  -0.1310641   0.0269298   0.1309712   0.1539129
           HZ2           0.0444925   0.0314498  -0.0749014  -0.0448486  -0.0215276
           HX3          -0.2421074   0.1134029  -0.0407324  -0.0251856   0.0152220
           HY3           0.1096295  -0.1305038   0.0257745  -0.0153302   0.0135565
           HZ3          -0.0427892   0.0301679  -0.0740215   0.0076263  -0.0034297
           HX4          -0.0616416   0.0004443  -0.0013759   0.0019143  -0.0103554
           HY4           0.0005070  -0.0904394   0.0984249   0.0011501  -0.0045331
           HZ4          -0.0013514   0.0832118  -0.3075097   0.0009628   0.0038409
           OX5          -0.0745357  -0.0003826  -0.0000874   0.0102229  -0.0266203
           OY5          -0.0004532  -0.2492240  -0.0634596  -0.0026718  -0.0325859
           OZ5          -0.0003214  -0.1111300  -0.1716683  -0.0061629  -0.0078038
           HX6           0.0006319   0.0000291  -0.0001768  -0.0002142   0.0002485
           HY6           0.0000060   0.0104587  -0.0471958  -0.0009952   0.0004279
           HZ6           0.0000006   0.0032669  -0.0258433   0.0001865   0.0025217
           OX7          -0.0012222  -0.0000216  -0.0000133   0.0003325   0.0003123
           OY7           0.0000447  -0.0032319  -0.0007846   0.0004737   0.0005294
           OZ7           0.0000300   0.0041547   0.0017093  -0.0002987  -0.0006350
           HX8           0.0003352  -0.0004732  -0.0003167  -0.0000914   0.0000232
           HY8          -0.0002940   0.0006549   0.0003394  -0.0000416  -0.0001006
           HZ8          -0.0003850  -0.0003732  -0.0002166   0.0001727   0.0001459
           HX9           0.0003175   0.0004801   0.0003259  -0.0000730  -0.0001705
           HY9           0.0002452   0.0006160   0.0003116  -0.0001313  -0.0001431
           HZ9           0.0003366  -0.0004078  -0.0002163  -0.0000276  -0.0000422
                             HZ2         HX3         HY3         HZ3         HX4     
           HZ2           0.0704504
           HX3          -0.0073296   0.2553083
           HY3          -0.0032899  -0.1309335   0.1533125
           HZ3           0.0037539   0.0429705  -0.0200780   0.0695637
           HX4           0.0300379   0.0015563   0.0104338  -0.0301417   0.0548470
           HY4           0.0178196  -0.0009366  -0.0045141   0.0177711  -0.0004947
           HZ4          -0.0041540  -0.0010347   0.0037525  -0.0038557   0.0015509
           OX5          -0.0212232   0.0104803   0.0265878   0.0211885   0.0027729
           OY5          -0.0244709   0.0025507  -0.0325344  -0.0244384  -0.0000149
           OZ5           0.0029951   0.0061456  -0.0081160   0.0027616  -0.0000803
           HX6          -0.0013016  -0.0002286  -0.0002307   0.0013199   0.0004319
           HY6          -0.0001126   0.0009871   0.0003938  -0.0001302  -0.0000160
           HZ6           0.0018830  -0.0001853   0.0024956   0.0018378   0.0000064
           OX7           0.0002532   0.0003460  -0.0002993  -0.0002574   0.0001973
           OY7           0.0002383  -0.0004578   0.0005451   0.0002502   0.0000012
           OZ7          -0.0000869   0.0002974  -0.0006330  -0.0000882  -0.0000022
           HX8          -0.0000421  -0.0000753   0.0001697   0.0000413  -0.0000387
           HY8          -0.0000298   0.0001348  -0.0001505  -0.0000817   0.0000511
           HZ8           0.0001074   0.0000427  -0.0000543  -0.0000592   0.0000666
           HX9          -0.0000384  -0.0000939  -0.0000270   0.0000419  -0.0000394
           HY9          -0.0000770   0.0000304  -0.0001051  -0.0000312  -0.0000494
           HZ9          -0.0000475  -0.0001741   0.0001486   0.0001077  -0.0000617
                             HY4         HZ4         OX5         OY5         OZ5     
           HY4           0.0966398
           HZ4          -0.0839543   0.3438260
           OX5          -0.0001741  -0.0000769   0.0580149
           OY5           0.0087263  -0.0019929   0.0008225   0.4118009
           OZ5          -0.0460991  -0.0287692  -0.0000326  -0.0135798   0.7540050
           HX6          -0.0000521  -0.0000522  -0.0099109  -0.0002173   0.0004431
           HY6          -0.0063845  -0.0051069  -0.0001962  -0.1087037   0.1841131
           HZ6          -0.0033383   0.0010741   0.0002151   0.1269380  -0.5520989
           OX7          -0.0000008   0.0000042   0.0043665  -0.0000148   0.0000075
           OY7           0.0006629   0.0003322  -0.0000933   0.0043267   0.0032962
           OZ7          -0.0006820  -0.0007714  -0.0000314  -0.0008337  -0.0076244
           HX8           0.0000371   0.0000945  -0.0007123  -0.0000582   0.0011803
           HY8          -0.0000803  -0.0000440  -0.0002815  -0.0008881  -0.0003761
           HZ8           0.0000236   0.0000798   0.0014919   0.0008761   0.0001807
           HX9          -0.0000360  -0.0000973  -0.0006988   0.0000570  -0.0011793
           HY9          -0.0000776  -0.0000394   0.0003377  -0.0009178  -0.0003044
           HZ9           0.0000345   0.0000801  -0.0014440   0.0009611   0.0002185
                             HX6         HY6         HZ6         OX7         OY7     
           HX6           0.0149269
           HY6           0.0001566   0.1072350
           HZ6          -0.0002297  -0.1310581   0.5765283
           OX7          -0.0074969   0.0000724  -0.0000111   0.8120058
           OY7           0.0000486  -0.0052543  -0.0020667  -0.0190570   0.1245875
           OZ7           0.0001014   0.0025095  -0.0023661   0.0034802   0.2172257
           HX8           0.0009369   0.0005712  -0.0020923  -0.4148528  -0.1046873
           HY8           0.0009815   0.0008665   0.0006725  -0.1353499  -0.0534450
           HZ8          -0.0032759  -0.0014270  -0.0004660  -0.2659062  -0.1006160
           HX9           0.0009230  -0.0005858   0.0021098  -0.3936763   0.1237273
           HY9          -0.0009642   0.0009607   0.0005684   0.1543586  -0.0687205
           HZ9           0.0031718  -0.0015919  -0.0005489   0.2624429  -0.1178752
                             OZ7         HX8         HY8         HZ8         HX9     
           OZ7           0.4238917
           HX8          -0.2109894   0.4465745
           HY8          -0.1033492   0.1184924   0.0490528
           HZ8          -0.2041427   0.2394304   0.0944335   0.1900885
           HX9           0.2074128  -0.0320762   0.0163072   0.0283627   0.4254170
           HY9          -0.1177570  -0.0140748   0.0040904   0.0069915  -0.1397522
           HZ9          -0.2105213  -0.0273060   0.0084353   0.0144282  -0.2369380
                             HY9         HZ9     
           HY9           0.0642971
           HZ9           0.1103375   0.1964996


 Atomic Masses
   1-  9   12.000000    1.007825    1.007825    1.007825   15.994910    1.007825   15.994910    1.007825    1.007825

 Mass weighted Second Derivative Matrix
                             CX1         CY1         CZ1         HX2         HY2     
           CX1           0.0515888
           CY1          -0.0000045   0.0493945
           CZ1          -0.0000011  -0.0033617   0.0543890
           HX2          -0.0692550  -0.0326155   0.0121892   0.2519660
           HY2          -0.0315246  -0.0376878   0.0077437   0.1299543   0.1527179
           HZ2           0.0127939   0.0090435  -0.0215381  -0.0445004  -0.0213605
           HX3          -0.0696185   0.0326093  -0.0117127  -0.0249901   0.0151038
           HY3           0.0315242  -0.0375267   0.0074115  -0.0152112   0.0134513
           HZ3          -0.0123041   0.0086749  -0.0212851   0.0075671  -0.0034031
           HX4          -0.0177252   0.0001278  -0.0003956   0.0018994  -0.0102750
           HY4           0.0001458  -0.0260061   0.0283023   0.0011412  -0.0044979
           HZ4          -0.0003886   0.0239277  -0.0884251   0.0009554   0.0038111
           OX5          -0.0053800  -0.0000276  -0.0000063   0.0025462  -0.0066302
           OY5          -0.0000327  -0.0179891  -0.0045805  -0.0006655  -0.0081161
           OZ5          -0.0000232  -0.0080214  -0.0123911  -0.0015350  -0.0019437
           HX6           0.0001817   0.0000084  -0.0000508  -0.0002125   0.0002466
           HY6           0.0000017   0.0030074  -0.0135713  -0.0009875   0.0004246
           HZ6           0.0000002   0.0009394  -0.0074313   0.0001850   0.0025021
           OX7          -0.0000882  -0.0000016  -0.0000010   0.0000828   0.0000778
           OY7           0.0000032  -0.0002333  -0.0000566   0.0001180   0.0001319
           OZ7           0.0000022   0.0002999   0.0001234  -0.0000744  -0.0001582
           HX8           0.0000964  -0.0001361  -0.0000911  -0.0000907   0.0000230
           HY8          -0.0000845   0.0001883   0.0000976  -0.0000413  -0.0000998
           HZ8          -0.0001107  -0.0001073  -0.0000623   0.0001714   0.0001447
           HX9           0.0000913   0.0001381   0.0000937  -0.0000724  -0.0001692
           HY9           0.0000705   0.0001771   0.0000896  -0.0001303  -0.0001420
           HZ9           0.0000968  -0.0001173  -0.0000622  -0.0000273  -0.0000419
                             HZ2         HX3         HY3         HZ3         HX4     
           HZ2           0.0699034
           HX3          -0.0072727   0.2533260
           HY3          -0.0032643  -0.1299169   0.1521221
           HZ3           0.0037248   0.0426369  -0.0199221   0.0690236
           HX4           0.0298047   0.0015442   0.0103528  -0.0299077   0.0544211
           HY4           0.0176812  -0.0009293  -0.0044790   0.0176332  -0.0004908
           HZ4          -0.0041218  -0.0010267   0.0037234  -0.0038258   0.0015388
           OX5          -0.0052860   0.0026103   0.0066221   0.0052774   0.0006906
           OY5          -0.0060949   0.0006353  -0.0081033  -0.0060868  -0.0000037
           OZ5           0.0007460   0.0015307  -0.0020214   0.0006878  -0.0000200
           HX6          -0.0012915  -0.0002268  -0.0002289   0.0013096   0.0004286
           HY6          -0.0001117   0.0009794   0.0003908  -0.0001292  -0.0000159
           HZ6           0.0018684  -0.0001838   0.0024762   0.0018235   0.0000063
           OX7           0.0000631   0.0000862  -0.0000745  -0.0000641   0.0000492
           OY7           0.0000594  -0.0001140   0.0001358   0.0000623   0.0000003
           OZ7          -0.0000216   0.0000741  -0.0001577  -0.0000220  -0.0000005
           HX8          -0.0000418  -0.0000748   0.0001684   0.0000409  -0.0000384
           HY8          -0.0000295   0.0001337  -0.0001493  -0.0000811   0.0000507
           HZ8           0.0001065   0.0000424  -0.0000539  -0.0000588   0.0000661
           HX9          -0.0000381  -0.0000932  -0.0000268   0.0000415  -0.0000391
           HY9          -0.0000764   0.0000301  -0.0001043  -0.0000310  -0.0000490
           HZ9          -0.0000472  -0.0001728   0.0001475   0.0001068  -0.0000613
                             HY4         HZ4         OX5         OY5         OZ5     
           HY4           0.0958895
           HZ4          -0.0833025   0.3411565
           OX5          -0.0000434  -0.0000192   0.0036271
           OY5           0.0021734  -0.0004964   0.0000514   0.0257457
           OZ5          -0.0114818  -0.0071655  -0.0000020  -0.0008490   0.0471403
           HX6          -0.0000517  -0.0000518  -0.0024685  -0.0000541   0.0001104
           HY6          -0.0063350  -0.0050672  -0.0000489  -0.0270745   0.0458565
           HZ6          -0.0033124   0.0010657   0.0000536   0.0316161  -0.1375097
           OX7          -0.0000002   0.0000010   0.0002730  -0.0000009   0.0000005
           OY7           0.0001651   0.0000827  -0.0000058   0.0002705   0.0002061
           OZ7          -0.0001699  -0.0001921  -0.0000020  -0.0000521  -0.0004767
           HX8           0.0000368   0.0000938  -0.0001774  -0.0000145   0.0002940
           HY8          -0.0000797  -0.0000436  -0.0000701  -0.0002212  -0.0000937
           HZ8           0.0000234   0.0000791   0.0003716   0.0002182   0.0000450
           HX9          -0.0000357  -0.0000966  -0.0001740   0.0000142  -0.0002937
           HY9          -0.0000770  -0.0000391   0.0000841  -0.0002286  -0.0000758
           HZ9           0.0000342   0.0000795  -0.0003597   0.0002394   0.0000544
                             HX6         HY6         HZ6         OX7         OY7     
           HX6           0.0148110
           HY6           0.0001554   0.1064024
           HZ6          -0.0002279  -0.1300406   0.5720520
           OX7          -0.0018672   0.0000180  -0.0000028   0.0507665
           OY7           0.0000121  -0.0013087  -0.0005148  -0.0011914   0.0077892
           OZ7           0.0000252   0.0006250  -0.0005893   0.0002176   0.0135809
           HX8           0.0009297   0.0005667  -0.0020760  -0.1033262  -0.0260742
           HY8           0.0009739   0.0008597   0.0006673  -0.0337112  -0.0133114
           HZ8          -0.0032504  -0.0014159  -0.0004623  -0.0662285  -0.0250601
           HX9           0.0009158  -0.0005813   0.0020934  -0.0980518   0.0308164
           HY9          -0.0009567   0.0009533   0.0005640   0.0384457  -0.0171160
           HZ9           0.0031472  -0.0015795  -0.0005447   0.0653659  -0.0293588
                             OZ7         HX8         HY8         HZ8         HX9     
           OZ7           0.0265017
           HX8          -0.0525505   0.4431072
           HY8          -0.0257409   0.1175724   0.0486719
           HZ8          -0.0508452   0.2375714   0.0937003   0.1886126
           HX9           0.0516597  -0.0318271   0.0161806   0.0281425   0.4221140
           HY9          -0.0293294  -0.0139656   0.0040586   0.0069372  -0.1386671
           HZ9          -0.0524339  -0.0270939   0.0083698   0.0143162  -0.2350983
                             HY9         HZ9     
           HY9           0.0637979
           HZ9           0.1094808   0.1949739


 Mass Weighted 2nd Derivative Matrix Eigenvalues
   1- 10    0.000000    0.000000    0.000000    0.000000    0.000000    0.000000    0.000163    0.000292    0.000349    0.001086
  11- 20    0.001620    0.002108    0.017369    0.053667    0.054482    0.061934    0.089825    0.098715    0.099009    0.100821
  21- 27    0.115765    0.370646    0.379818    0.396554    0.642251    0.647957    0.677582

 Mass Weighted 2nd Derivative Matrix Eigenvectors
              1             2             3             4             5             6             7             8
    1    0.00000000    0.00000000    0.00000000    0.81166117    0.00000000    0.00000000   -0.00688159    0.11631663
    2    0.56925773    0.03365764   -0.00232553   -0.00057759    0.06008773   -0.35213334   -0.15362754    0.00052750
    3    0.17434572    0.03845676    0.10611669   -0.00021681   -0.07161698    0.46057681    0.52053224   -0.00465093
    4    0.01871174   -0.09007691   -0.09751533    0.31030096    0.02074333    0.02617842   -0.01076127   -0.14742489
    5    0.13184869    0.14294147    0.12600365   -0.12022781    0.00054985   -0.12795511   -0.00447697    0.16557512
    6    0.02798060    0.02685490   -0.01410964   -0.04513052    0.02441914    0.17414720    0.24780573   -0.33073472
    7    0.01862973   -0.08972463   -0.09701984    0.31052863    0.02014036    0.02597160   -0.01165340   -0.14368750
    8    0.18417818   -0.10997394   -0.14047261    0.12030650    0.02878307   -0.06098551   -0.02663334   -0.16604968
    9    0.02230111    0.04581656    0.02980311    0.04516006   -0.08620446    0.14726929    0.26831473    0.32866903
   10   -0.01248933    0.05546052    0.07255504    0.24615709   -0.06999531   -0.02757030    0.01373251    0.48007842
   11    0.20760610   -0.03189469    0.03886648   -0.00093313    0.03425969   -0.14822473   -0.22378392    0.00157621
   12    0.06330108   -0.00156942    0.04214573   -0.00035027   -0.01535462    0.11986214    0.09721370   -0.00331831
   13   -0.12450586    0.62114671    0.61396283    0.15224438    0.12434805   -0.12700679    0.00843653   -0.18141822
   14    0.52785844    0.16586022   -0.12167192    0.00090067    0.01823433   -0.26682525    0.36189361   -0.00237024
   15    0.39002677   -0.14272770    0.29345781    0.00033809   -0.00870478    0.32884325   -0.18307294   -0.00006240
   16   -0.02087761    0.11008166    0.09346072    0.02602775    0.09221547   -0.00846376   -0.00604358   -0.26756015
   17    0.09500139    0.07887998   -0.06436303    0.00016578   -0.01026325   -0.02673833    0.22946593   -0.00078105
   18    0.08752064   -0.02553198    0.06426456    0.00006223   -0.00626614    0.09370264   -0.00787932   -0.00015624
   19    0.00823750    0.03314989   -0.15954211    0.01679565    0.88597176    0.16920389    0.00754600   -0.02106033
   20    0.06061661    0.63081479   -0.54172892   -0.00088927   -0.16670779    0.23401888   -0.10935426    0.00153605
   21    0.25580611   -0.00969296    0.17175580   -0.00033381   -0.06100899    0.47322524   -0.41993731    0.00727897
   22   -0.00361079    0.03841277   -0.01486794   -0.05465158    0.24928576    0.04049645   -0.01044168    0.23607482
   23    0.01742974    0.06912912   -0.26982162    0.10390702   -0.03771192    0.10968464   -0.18254164   -0.12351041
   24    0.07192126   -0.00431054    0.07131630    0.03900411   -0.05918090    0.09623166   -0.00868395   -0.31035158
   25   -0.00488641    0.04466358   -0.00839635   -0.06121091    0.24919699    0.03895014   -0.01475807    0.24778954
   26   -0.02729185    0.28495148   -0.04259117   -0.10127075   -0.06182837    0.05264931   -0.26798678    0.12469287
   27    0.07866022   -0.02236397    0.03557084   -0.03801451    0.03593152    0.11712448    0.00934305    0.30319102
              9            10            11            12            13            14            15            16
    1   -0.10842486    0.00035806   -0.01814491   -0.00334655   -0.00189990   -0.00174411   -0.00038958   -0.42392830
    2    0.01095733   -0.05997070    0.00340873   -0.03780269   -0.00014786   -0.53649653   -0.22491054    0.00141386
    3   -0.03915440   -0.14751043   -0.00793125    0.11808665   -0.00007282   -0.39606873    0.20693899    0.00073174
    4   -0.16387700    0.00321093    0.10593383    0.00099318   -0.01376368    0.00128197   -0.04500505    0.16663990
    5    0.14679516   -0.00358068   -0.09794567    0.00503835    0.00518944   -0.12901865   -0.11430675   -0.49783778
    6   -0.16792602    0.01759247    0.20385188    0.09298479   -0.04831943   -0.08085430   -0.34627387   -0.27764616
    7   -0.16205670    0.00371906    0.10355841    0.00028866   -0.01299909   -0.00168373    0.04364237    0.16795059
    8   -0.14522255    0.00212654    0.09777419    0.00582635   -0.00552936   -0.12815251   -0.10933348    0.49991066
    9    0.13051602    0.00637344   -0.21777049    0.08213994    0.04686687   -0.08004863   -0.34444213    0.28027502
   10    0.19283339   -0.00755663   -0.28957902   -0.00764376    0.07304138   -0.00012532    0.00182014    0.24918132
   11    0.01680623   -0.10498896    0.00705569   -0.09122211    0.00138318   -0.14962416    0.53327203   -0.00276263
   12   -0.00849581   -0.06853154    0.00099879    0.01099806    0.00006551   -0.10833480    0.23779313   -0.00276368
   13    0.10186830    0.00334437    0.22546491    0.01141034   -0.15054944    0.00149400    0.00018108    0.22089980
   14   -0.02697447    0.21555759   -0.01599042    0.20418756   -0.00100779    0.55740360   -0.00672090   -0.00101284
   15    0.01118222   -0.56475115    0.01779385   -0.18937921    0.00040515    0.39763122   -0.09060317   -0.00058213
   16   -0.04312108   -0.00143262   -0.22287822   -0.00794431    0.91984081    0.00059544   -0.00051171   -0.00225656
   17   -0.01573491    0.13326338   -0.00606272    0.07282388   -0.00131161    0.02641826    0.52453091   -0.00017006
   18    0.00033856   -0.11861155    0.00372962   -0.04177000    0.00027361    0.07448969    0.11790627   -0.00013830
   19    0.13659923   -0.00390861   -0.22180011   -0.01083973   -0.12899134    0.00003427    0.00011336    0.00051127
   20    0.01165947   -0.08090346    0.01828787   -0.42313180    0.00073125    0.00490931   -0.01609474    0.00000899
   21    0.02988142    0.61295352   -0.00902626    0.18831701    0.00108433   -0.00597162   -0.00201685    0.00002060
   22   -0.18208458    0.00041283    0.17940012    0.00706913    0.07762938    0.00030428   -0.00338287   -0.00035150
   23    0.59832426   -0.17850857    0.22768250    0.52274782    0.07190143   -0.00430260    0.01617315    0.00009599
   24    0.04455729    0.23029809   -0.47834790   -0.28107441   -0.20519257    0.00047119   -0.00410185    0.00070333
   25   -0.21756897    0.00265873    0.17157638    0.01651161    0.07644370   -0.00044272    0.00360843   -0.00040423
   26   -0.57776582   -0.17781125   -0.24941886    0.48746041   -0.07002117   -0.00421709    0.01663969   -0.00011573
   27   -0.02747244    0.24985362    0.47997754   -0.26651982    0.20062347    0.00066602   -0.00597055   -0.00071816
             17            18            19            20            21            22            23            24
    1   -0.00013154   -0.01094644   -0.19881903   -0.00031636   -0.00019347   -0.00209726   -0.31009113   -0.00090832
    2    0.17563716   -0.23739792    0.01238881   -0.21050687    0.00083583    0.17691183   -0.00123077    0.13057564
    3   -0.29952287   -0.26381990    0.01401749   -0.00374540    0.00563611    0.00201274    0.00103943   -0.26843779
    4    0.11451871   -0.01080913    0.06395546   -0.39870558    0.00411026   -0.54849341    0.54442974   -0.14538126
    5   -0.02872962    0.12164903    0.00208705    0.53150222   -0.00738978   -0.36000193    0.37981870   -0.08492964
    6    0.20628036    0.48044782    0.44931996   -0.07572989   -0.00195263    0.11169504   -0.12699237    0.01878315
    7   -0.11282064    0.02106618    0.05416747    0.39706225   -0.00412333    0.55712083    0.54018266    0.14366968
    8   -0.03156890    0.12069146   -0.01861717    0.53161513   -0.00733645   -0.36356508   -0.37448333   -0.08317739
    9    0.20618593    0.43359348   -0.49438480   -0.08411852   -0.00243230    0.10758366    0.12009269    0.01678594
   10   -0.00086225    0.03515696    0.71004035    0.00300579    0.00038334   -0.00160524   -0.02392358    0.00481240
   11   -0.21913761    0.62921673   -0.02968066   -0.16158474    0.00344803    0.08205100   -0.00103901   -0.27752776
   12   -0.17092691    0.15262443   -0.01100423   -0.04846752    0.00298458   -0.25431268    0.00340957    0.88152744
   13   -0.00061773   -0.00175541   -0.03383530   -0.00017646    0.00006548    0.00005994    0.00200499    0.00001745
   14   -0.25837115   -0.00170561    0.00050252   -0.07940142    0.00613435    0.00782581   -0.00000294   -0.00371004
   15    0.14024281   -0.03018145    0.00150954    0.04441086    0.00100585    0.00348940   -0.00001024    0.00456851
   16    0.00167008   -0.00083418   -0.01081287    0.00024433   -0.00027973   -0.00003440    0.00050994   -0.00004297
   17    0.73511442   -0.05447094    0.00186979    0.14585836   -0.02591056    0.00159320   -0.00005611    0.01020096
   18    0.24757206   -0.02805428    0.00113662    0.05312071   -0.01115494    0.01207275   -0.00006675   -0.00854511
   19   -0.00006549    0.00008248    0.00143026   -0.00002412   -0.00512651   -0.00000383    0.00034664    0.00000804
   20   -0.01796037    0.00366068   -0.00009402   -0.00402859   -0.12264841   -0.00084051    0.00000341   -0.00003637
   21   -0.00562219   -0.00297454    0.00031794   -0.00542956   -0.24298461    0.00051222   -0.00001090    0.00002144
   22   -0.00977932   -0.00078450   -0.00077033   -0.00671582   -0.40318156    0.00034835   -0.00027460   -0.00033214
   23    0.01956261   -0.00278849    0.00065828    0.00588338    0.26158584    0.00081970    0.00028034   -0.00009217
   24    0.00487290    0.00188636    0.00144845    0.00660365    0.48155946    0.00006175    0.00064449   -0.00026369
   25    0.01044914    0.00064140   -0.00143431    0.00699976    0.42392078   -0.00032280   -0.00028368    0.00030707
   26    0.01955225   -0.00291465   -0.00069385    0.00547552    0.23688838    0.00081823   -0.00027550   -0.00011689
   27    0.00325486    0.00193343   -0.00216546    0.00622157    0.47554451    0.00001257   -0.00059010   -0.00029447
             25            26            27
    1    0.00000229    0.00000178    0.00005834
    2    0.00091866   -0.00087227    0.00000256
    3   -0.00331578    0.00133873   -0.00000183
    4    0.00304072   -0.00134878   -0.00007291
    5    0.00488618   -0.00210307   -0.00005915
    6    0.00158462   -0.00083470    0.00002302
    7   -0.00307321    0.00134490   -0.00007832
    8    0.00490801   -0.00210357    0.00006730
    9    0.00156363   -0.00082256   -0.00001795
   10    0.00006148   -0.00002896    0.00001691
   11    0.00002150   -0.00002920    0.00000023
   12    0.01304970   -0.00572274    0.00000356
   13    0.00009403   -0.00004450   -0.00004646
   14    0.05286538   -0.02631459    0.00004943
   15   -0.21044511    0.10590619   -0.00020072
   16   -0.00041706    0.00016962   -0.00062284
   17   -0.22374736    0.11169647   -0.00019012
   18    0.83650318   -0.42239208    0.00082797
   19   -0.00305134   -0.00651902   -0.27260656
   20   -0.04237834   -0.08242791    0.00919107
   21   -0.07900855   -0.15278916    0.00390692
   22    0.26273690    0.52536385    0.54453380
   23    0.07782361    0.15144062    0.17615865
   24    0.15594065    0.30663230    0.35180605
   25   -0.25057537   -0.49935902    0.54221921
   26    0.09115975    0.17731779   -0.21279815
   27    0.15592738    0.30529305   -0.36740112

   Low Vibration      Wavenumber
        Nr             [1/cm] 
        1                0.00
        2                0.00
        3                0.00
        4                0.00
        5                0.00
        6                0.00

     Vibration        Wavenumber
        Nr             [1/cm] 
        1               65.67
        2               87.81
        3               96.10
        4              169.41
        5              206.92
        6              236.01
        7              677.47
        8             1190.86
        9             1199.87
       10             1279.29
       11             1540.65
       12             1615.08
       13             1617.49
       14             1632.22
       15             1749.01
       16             3129.56
       17             3168.05
       18             3237.09
       19             4119.61
       20             4137.87
       21             4231.41

 FREQUENCIES * CALCULATION OF NORMAL MODES FOR HF-SCF


 Atomic Coordinates

  Nr  Atom  Charge       X              Y              Z

   1   C     6.00   -0.002321620   -0.939774806   -3.023761767
   2   H     1.00   -1.667534906   -2.104877268   -2.694055543
   3   H     1.00    1.668626440   -2.101529716   -2.711385649
   4   H     1.00   -0.012942276   -0.354990664   -4.985694961
   5   O     8.00    0.003135711    1.232445527   -1.531372069
   6   H     1.00    0.002299297    0.756447280    0.187026634
   7   O     8.00   -0.003096018   -0.312480238    3.840578465
   8   H     1.00    1.441169042    0.155097465    4.770057210
   9   H     1.00   -1.404604418    0.239077894    4.788694965

 Gradient norm at reference geometry: 0.28471D-03

 Normal Modes

                              1 A         2 A         3 A         4 A         5 A  
 Wavenumbers [cm-1]           65.67       87.81       96.10      169.41      206.92
 Intensities [km/mol]          0.00        0.00        0.00        0.00        0.00
 Intensities [relative]        0.00        0.00        0.00        0.00        0.00
           CX1             -0.00199     0.03358    -0.03130     0.00010    -0.00524
           CY1             -0.04435     0.00015     0.00316    -0.01731     0.00098
           CZ1              0.15026    -0.00134    -0.01130    -0.04258    -0.00229
           HX2             -0.01072    -0.14685    -0.16324     0.00320     0.10552
           HY2             -0.00446     0.16493     0.14622    -0.00357    -0.09756
           HZ2              0.24684    -0.32945    -0.16727     0.01752     0.20306
           HX3             -0.01161    -0.14313    -0.16143     0.00370     0.10316
           HY3             -0.02653    -0.16540    -0.14466     0.00212     0.09739
           HZ3              0.26727     0.32739     0.13001     0.00635    -0.21692
           HX4              0.01368     0.47821     0.19208    -0.00753    -0.28845
           HY4             -0.22291     0.00157     0.01674    -0.10458     0.00703
           HZ4              0.09684    -0.00331    -0.00846    -0.06826     0.00099
           OX5              0.00211    -0.04536     0.02547     0.00084     0.05638
           OY5              0.09049    -0.00059    -0.00674     0.05390    -0.00400
           OZ5             -0.04578    -0.00002     0.00280    -0.14121     0.00445
           HX6             -0.00602    -0.26652    -0.04295    -0.00143    -0.22201
           HY6              0.22857    -0.00078    -0.01567     0.13275    -0.00604
           HZ6             -0.00785    -0.00016     0.00034    -0.11815     0.00372
           OX7              0.00189    -0.00527     0.03416    -0.00098    -0.05546
           OY7             -0.02734     0.00038     0.00292    -0.02023     0.00457
           OZ7             -0.10500     0.00182     0.00747     0.15326    -0.00226
           HX8             -0.01040     0.23516    -0.18138     0.00041     0.17870
           HY8             -0.18183    -0.12303     0.59600    -0.17781     0.22680
           HZ8             -0.00865    -0.30914     0.04438     0.22940    -0.47649
           HX9             -0.01470     0.24683    -0.21672     0.00265     0.17091
           HY9             -0.26694     0.12421    -0.57552    -0.17712    -0.24845
           HZ9              0.00931     0.30201    -0.02737     0.24888     0.47811

                              6 A         7 A         8 A         9 A        10 A  
 Wavenumbers [cm-1]          236.01      677.47     1190.86     1199.87     1279.29
 Intensities [km/mol]          0.00        0.00        0.00        0.00        0.00
 Intensities [relative]        0.00        0.00        0.00        0.00        0.00
           CX1             -0.00097    -0.00055    -0.00050    -0.00011    -0.12238
           CY1             -0.01091    -0.00004    -0.15487    -0.06493     0.00041
           CZ1              0.03409    -0.00002    -0.11434     0.05974     0.00021
           HX2              0.00099    -0.01371     0.00128    -0.04483     0.16599
           HY2              0.00502     0.00517    -0.12852    -0.11386    -0.49590
           HZ2              0.09262    -0.04813    -0.08054    -0.34493    -0.27657
           HX3              0.00029    -0.01295    -0.00168     0.04347     0.16730
           HY3              0.00580    -0.00551    -0.12765    -0.10891     0.49797
           HZ3              0.08182     0.04668    -0.07974    -0.34310     0.27918
           HX4             -0.00761     0.07276    -0.00012     0.00181     0.24821
           HY4             -0.09087     0.00138    -0.14904     0.53120    -0.00275
           HZ4              0.01096     0.00007    -0.10791     0.23687    -0.00275
           OX5              0.00285    -0.03764     0.00037     0.00005     0.05523
           OY5              0.05106    -0.00025     0.13937    -0.00168    -0.00025
           OZ5             -0.04735     0.00010     0.09942    -0.02265    -0.00015
           HX6             -0.00791     0.91626     0.00059    -0.00051    -0.00225
           HY6              0.07254    -0.00131     0.02632     0.52249    -0.00017
           HZ6             -0.04161     0.00027     0.07420     0.11745    -0.00014
           OX7             -0.00271    -0.03225     0.00001     0.00003     0.00013
           OY7             -0.10580     0.00018     0.00123    -0.00402     0.00000
           OZ7              0.04709     0.00027    -0.00149    -0.00050     0.00001
           HX8              0.00704     0.07733     0.00030    -0.00337    -0.00035
           HY8              0.52071     0.07162    -0.00429     0.01611     0.00010
           HZ8             -0.27998    -0.20439     0.00047    -0.00409     0.00070
           HX9              0.01645     0.07615    -0.00044     0.00359    -0.00040
           HY9              0.48556    -0.06975    -0.00420     0.01657    -0.00012
           HZ9             -0.26548     0.19984     0.00066    -0.00595    -0.00072

                             11 A        12 A        13 A        14 A        15 A  
 Wavenumbers [cm-1]         1540.65     1615.08     1617.49     1632.22     1749.01
 Intensities [km/mol]          0.00        0.00        0.00        0.00        0.00
 Intensities [relative]        0.00        0.00        0.00        0.00        0.00
           CX1             -0.00004    -0.00316    -0.05739    -0.00009    -0.00006
           CY1              0.05070    -0.06853     0.00358    -0.06077     0.00024
           CZ1             -0.08646    -0.07616     0.00405    -0.00108     0.00163
           HX2              0.11407    -0.01077     0.06371    -0.39715     0.00409
           HY2             -0.02862     0.12118     0.00208     0.52943    -0.00736
           HZ2              0.20548     0.47858     0.44757    -0.07544    -0.00195
           HX3             -0.11238     0.02098     0.05396     0.39552    -0.00411
           HY3             -0.03145     0.12022    -0.01854     0.52955    -0.00731
           HZ3              0.20538     0.43191    -0.49246    -0.08379    -0.00242
           HX4             -0.00086     0.03502     0.70728     0.00299     0.00038
           HY4             -0.21829     0.62677    -0.02957    -0.16096     0.00343
           HZ4             -0.17026     0.15203    -0.01096    -0.04828     0.00297
           OX5             -0.00015    -0.00044    -0.00846    -0.00004     0.00002
           OY5             -0.06460    -0.00043     0.00013    -0.01985     0.00153
           OZ5              0.03507    -0.00755     0.00038     0.01110     0.00025
           HX6              0.00166    -0.00083    -0.01077     0.00024    -0.00028
           HY6              0.73226    -0.05426     0.00186     0.14529    -0.02581
           HZ6              0.24661    -0.02795     0.00113     0.05291    -0.01111
           OX7             -0.00002     0.00002     0.00036    -0.00001    -0.00128
           OY7             -0.00449     0.00092    -0.00002    -0.00101    -0.03067
           OZ7             -0.00141    -0.00074     0.00008    -0.00136    -0.06076
           HX8             -0.00974    -0.00078    -0.00077    -0.00669    -0.40161
           HY8              0.01949    -0.00278     0.00066     0.00586     0.26057
           HZ8              0.00485     0.00188     0.00144     0.00658     0.47969
           HX9              0.01041     0.00064    -0.00143     0.00697     0.42227
           HY9              0.01948    -0.00290    -0.00069     0.00545     0.23597
           HZ9              0.00324     0.00193    -0.00216     0.00620     0.47369

                             16 A        17 A        18 A        19 A        20 A  
 Wavenumbers [cm-1]         3129.56     3168.05     3237.09     4119.61     4137.87
 Intensities [km/mol]          0.00        0.00        0.00        0.00        0.00
 Intensities [relative]        0.00        0.00        0.00        0.00        0.00
           CX1             -0.00061    -0.08952    -0.00026     0.00000     0.00000
           CY1              0.05107    -0.00036     0.03769     0.00027    -0.00025
           CZ1              0.00058     0.00030    -0.07749    -0.00096     0.00039
           HX2             -0.54636     0.54231    -0.14482     0.00303    -0.00134
           HY2             -0.35860     0.37834    -0.08460     0.00487    -0.00209
           HZ2              0.11126    -0.12650     0.01871     0.00158    -0.00083
           HX3              0.55495     0.53808     0.14311    -0.00306     0.00134
           HY3             -0.36215    -0.37303    -0.08285     0.00489    -0.00210
           HZ3              0.10717     0.11963     0.01672     0.00156    -0.00082
           HX4             -0.00160    -0.02383     0.00479     0.00006    -0.00003
           HY4              0.08173    -0.00103    -0.27645     0.00002    -0.00003
           HZ4             -0.25332     0.00340     0.87810     0.01300    -0.00570
           OX5              0.00001     0.00050     0.00000     0.00002    -0.00001
           OY5              0.00196    -0.00000    -0.00093     0.01322    -0.00658
           OZ5              0.00087    -0.00000     0.00114    -0.05262     0.02648
           HX6             -0.00003     0.00051    -0.00004    -0.00042     0.00017
           HY6              0.00159    -0.00006     0.01016    -0.22288     0.11126
           HZ6              0.01203    -0.00007    -0.00851     0.83325    -0.42075
           OX7             -0.00000     0.00009     0.00000    -0.00076    -0.00163
           OY7             -0.00021     0.00000    -0.00001    -0.01060    -0.02061
           OZ7              0.00013    -0.00000     0.00001    -0.01976    -0.03820
           HX8              0.00035    -0.00027    -0.00033     0.26171     0.52332
           HY8              0.00082     0.00028    -0.00009     0.07752     0.15085
           HZ8              0.00006     0.00064    -0.00026     0.15533     0.30544
           HX9             -0.00032    -0.00028     0.00031    -0.24960    -0.49742
           HY9              0.00082    -0.00027    -0.00012     0.09081     0.17663
           HZ9              0.00001    -0.00059    -0.00029     0.15532     0.30411

                             21 A  
 Wavenumbers [cm-1]         4231.41
 Intensities [km/mol]          0.00
 Intensities [relative]        0.00
           CX1              0.00002
           CY1              0.00000
           CZ1             -0.00000
           HX2             -0.00007
           HY2             -0.00006
           HZ2              0.00002
           HX3             -0.00008
           HY3              0.00007
           HZ3             -0.00002
           HX4              0.00002
           HY4              0.00000
           HZ4              0.00000
           OX5             -0.00001
           OY5              0.00001
           OZ5             -0.00005
           HX6             -0.00062
           HY6             -0.00019
           HZ6              0.00082
           OX7             -0.06816
           OY7              0.00230
           OZ7              0.00098
           HX8              0.54242
           HY8              0.17547
           HZ8              0.35044
           HX9              0.54011
           HY9             -0.21197
           HZ9             -0.36597


 Normal Modes of low/zero frequencies

                                  1           2           3           4           5
 Wavenumbers [cm-1]            0.00        0.00        0.00        0.00        0.00
 Intensities [km/mol]          0.00        0.00        0.00        0.00        0.00
 Intensities [relative]        0.00        0.00        0.00        0.00        0.00
           CX1              0.00000    -0.00000    -0.00000     0.23431     0.00000
           CY1              0.16433     0.00972    -0.00067    -0.00017     0.01735
           CZ1              0.05033     0.01110     0.03063    -0.00006    -0.02067
           HX2              0.01864    -0.08973    -0.09714     0.30909     0.02066
           HY2              0.13134     0.14239     0.12551    -0.11976     0.00055
           HZ2              0.02787     0.02675    -0.01405    -0.04495     0.02432
           HX3              0.01856    -0.08938    -0.09664     0.30932     0.02006
           HY3              0.18346    -0.10955    -0.13993     0.11984     0.02867
           HZ3              0.02221     0.04564     0.02969     0.04498    -0.08587
           HX4             -0.01244     0.05524     0.07227     0.24520    -0.06972
           HY4              0.20680    -0.03177     0.03872    -0.00093     0.03413
           HZ4              0.06305    -0.00156     0.04198    -0.00035    -0.01529
           OX5             -0.03113     0.15531     0.15352     0.03807     0.03109
           OY5              0.13199     0.04147    -0.03042     0.00023     0.00456
           OZ5              0.09752    -0.03569     0.07338     0.00008    -0.00218
           HX6             -0.02080     0.10965     0.09310     0.02593     0.09186
           HY6              0.09463     0.07857    -0.06411     0.00017    -0.01022
           HZ6              0.08718    -0.02543     0.06401     0.00006    -0.00624
           OX7              0.00206     0.00829    -0.03989     0.00420     0.22153
           OY7              0.01516     0.15773    -0.13545    -0.00022    -0.04168
           OZ7              0.06396    -0.00242     0.04295    -0.00008    -0.01525
           HX8             -0.00360     0.03826    -0.01481    -0.05444     0.24832
           HY8              0.01736     0.06886    -0.26877     0.10350    -0.03757
           HZ8              0.07164    -0.00429     0.07104     0.03885    -0.05895
           HX9             -0.00487     0.04449    -0.00836    -0.06097     0.24823
           HY9             -0.02719     0.28384    -0.04243    -0.10088    -0.06159
           HZ9              0.07835    -0.02228     0.03543    -0.03787     0.03579

                                  6
 Wavenumbers [cm-1]            0.00
 Intensities [km/mol]          0.00
 Intensities [relative]        0.00
           CX1             -0.00000
           CY1             -0.10165
           CZ1              0.13296
           HX2              0.02608
           HY2             -0.12746
           HZ2              0.17347
           HX3              0.02587
           HY3             -0.06075
           HZ3              0.14670
           HX4             -0.02746
           HY4             -0.14765
           HZ4              0.11940
           OX5             -0.03176
           OY5             -0.06672
           OZ5              0.08222
           HX6             -0.00843
           HY6             -0.02663
           HZ6              0.09334
           OX7              0.04231
           OY7              0.05851
           OZ7              0.11833
           HX8              0.04034
           HY8              0.10926
           HZ8              0.09586
           HX9              0.03880
           HY9              0.05244
           HZ9              0.11667


 Frequencies dumped to record   5400.2

 Zero point energy:  0.08061857 [H]    17693.73 [1/CM]      211.66 [KJ/MOL]
 Frequency information read from record  5400.2


 **********************************************************************************************************************************
 DATASETS  * FILE   NREC   LENGTH (MB)   RECORD NAMES
              1      18       29.00       500      610      700      900      950      970     1000      129      960     1100   
                                          VAR    BASINP    GEOM    SYMINP    ZMAT    AOBASIS   BASIS     P2S    ABASIS      S 
                                         1400     1410     1200     1210     1080     1600     1650     1700   
                                           T        V       H0       H01     AOSYM     SMH    MOLCAS    OPER   

              2       7        0.73       700     1000      520     2100     5300     5450     5400   
                                         GEOM     BASIS   MCVARS     RHF     HESS     NMOD     FREQ   

              4       5        3.38      4100     4000     4200     4300     4400   

 PROGRAMS   *        TOTAL      FREQ      OPTG    HF-SCF       INT
 CPU TIMES  *       351.69    179.81    168.85      2.26      0.60
 REAL TIME  *       158.02 SEC
 DISK USED  *        30.19 MB (local),      274.85 MB (total)
 SF USED    *         3.38 MB
 GA USED    *         0.00 MB       (max)       0.00 MB       (current)
 **********************************************************************************************************************************

 Dump information in style MOLDEN to methanowateracceptor.molden                                                     

 Molecular orbitals read from record     2100.2  Type=RHF/CANONICAL  
 Occupation numbers read from record     2100.2  Type=RHF/RHF  
 Orbital energies read from record       2100.2  Type=RHF/CANONICAL  
 Redundancy group numbers read from rec  2100.2  Type=RHF/RHF  

 DUMP ORBITAL  1.1 AS ORBITAL    1  occ=    2.0000  eig=  -20.5736  GROUP=   2
 DUMP ORBITAL  2.1 AS ORBITAL    2  occ=    2.0000  eig=  -20.5110  GROUP=   2
 DUMP ORBITAL  3.1 AS ORBITAL    3  occ=    2.0000  eig=  -11.2462  GROUP=   2
 DUMP ORBITAL  4.1 AS ORBITAL    4  occ=    2.0000  eig=   -1.3795  GROUP=   2
 DUMP ORBITAL  5.1 AS ORBITAL    5  occ=    2.0000  eig=   -1.3351  GROUP=   2
 DUMP ORBITAL  6.1 AS ORBITAL    6  occ=    2.0000  eig=   -0.9048  GROUP=   2
 DUMP ORBITAL  7.1 AS ORBITAL    7  occ=    2.0000  eig=   -0.7481  GROUP=   2
 DUMP ORBITAL  8.1 AS ORBITAL    8  occ=    2.0000  eig=   -0.6767  GROUP=   2
 DUMP ORBITAL  9.1 AS ORBITAL    9  occ=    2.0000  eig=   -0.6021  GROUP=   2
 DUMP ORBITAL 10.1 AS ORBITAL   10  occ=    2.0000  eig=   -0.5988  GROUP=   2
 DUMP ORBITAL 11.1 AS ORBITAL   11  occ=    2.0000  eig=   -0.5740  GROUP=   2
 DUMP ORBITAL 12.1 AS ORBITAL   12  occ=    2.0000  eig=   -0.5321  GROUP=   2
 DUMP ORBITAL 13.1 AS ORBITAL   13  occ=    2.0000  eig=   -0.4720  GROUP=   2
 DUMP ORBITAL 14.1 AS ORBITAL   14  occ=    2.0000  eig=   -0.4193  GROUP=   2

 Total charge:      28.000000
 Frequency information read from record  5400.2

 **********************************************************************************************************************************

 HF/6-311G(D,P)//HF/6-311G(D,P) energy=   -191.131834321135

    OPTG(HF-SCF)          HF-SCF
   -191.13183432   -191.11171359
 **********************************************************************************************************************************
 Molpro calculation terminated
