[Molden Format]
[Molpro variables]
_NUMVAR=  1067.000000000000    
_AVOGAD= 0.6022140760000000E+24
_BOLTZ= 0.1380649000000000E-22
_CLIGHTSI=  299792458.0000000    
_JOULE= 0.4359744722207100E-17
_JPCAL=  4.184000000000000    
_PLANCK= 0.6626070150000000E-33
_BOHR= 0.5291772109030000E-10
_ECHARG= 0.1602176634000000E-18
_ENULL= 0.8854187812800001E-11
_MU= 0.1660539066600000E-26
_EMASS= 0.9109383701500001E-30
_AMU2AU=  1822.888486217313    
_CLIGHT=  29979245800.00000    
_EV= 0.3674932217565494E-01
_KJOULE= 0.3808798847133432E-03
_KJOULE/MOL= 0.3808798847133432E-03
_CM= 0.4556335252912009E-05
_CM-1= 0.4556335252912009E-05
_DEB2SI= 0.3335640951981520E-29
_KCAL= 0.1593601437640628E-02
_KCAL/MOL= 0.1593601437640628E-02
_KELVIN= 0.3166811563455608E-05
_HERTZ= 0.1519829846057038E-15
_HZ= 0.1519829846057038E-15
_TOA= 0.5291772109030000    
_TOANG= 0.5291772109030000    
_TORAD= 0.1745329251994330E-01
_TOCM=  219474.6313631965    
_TODEBYE=  2.541746473194078    
_TOE= 0.4803204712570263E-09
_TOEV=  27.21138624598803    
_TOHERTZ=  6579683920501656.    
_TOHZ=  6579683920501656.    
_TOK=  315775.0248040668    
_TOKCAL=  627.5094740630558    
_TOKELVIN=  315775.0248040668    
_TOKJ=  2625.499639479825    
_TOKJOULE=  2625.499639479825    
_TOKG= 0.1660539066600000E-26
_ANG=  1.889726124625770    
_ANGSTROM=  1.889726124625770    
_RPAREF=  0.000000000000000    
_RPADISS=  0.000000000000000    
_IGNORE_UNDEF=  2.000000000000000    
_STRICTCHECK=  0.000000000000000    
!SEWARD=  0.000000000000000    
!MULTI=  0.000000000000000    
!DFMULTI=  0.000000000000000    
_SEW_ONEEL=  0.000000000000000    
_CPPDONE=FALSE
_DKROLL_DONE=  0.000000000000000    
_FNUC_DONE=  0.000000000000000    
_FOCKDONE=TRUE
_GRADONE=FALSE
_HESSDONE=TRUE
_INTDONE=TRUE
_SCFDONE=TRUE
_MODUL_BLOCK=FALSE
_MODUL_CUDA=FALSE
_MODUL_SLATER=FALSE
_MODUL_MRCC=FALSE
_MODUL_NBO6=FALSE
_MODUL_NECI=FALSE
_MODUL_AIMS=TRUE
_MODUL_GECCO=FALSE
_ISWINDOWS=FALSE
_MRCC_EXEC=
_FITC_AO_SAVED=FALSE
_FITC_MO_SAVED=FALSE
_SHARED_FS=TRUE
_LSTYP=SEWARD
_INTYP=INTS
_GEOMTYP=ZMAT
_GRADTYP=ALASKA
_DIRECT=FALSE
_DKHO= -1.000000000000000    
_FNUC=  0.000000000000000    
_SYNCM=  0.000000000000000    
_BASIS=6-311G(D,P)
_ZCENTRE=MASS
_ZORIENT=  1.000000000000000    
_NELEC=  28.00000000000000    
!SPIN=  0.000000000000000    
_OPTCONV= 0.3527728913960539E-01
_QSDSTEP=  0.000000000000000    
_QSDIRC=  0.000000000000000    
_PROGRAM=FREQ
_CPUSTEP=  179.8300000000000    
_SYSSTEP=  1.410000000000000    
_WALLSTEP=  71.38000000000000    
!DFSCF=  0.000000000000000    
!SCSGRD=  0.000000000000000    
_CPUTOT=  351.6900000000000    
_DFTEXFAC=  1.000000000000000    
_DMX= 0.1436478926659707E-01
_DMY=-0.2816583629782787    
_DMZ=  1.232847992916126    
_DMX_SCF= 0.1436478926659707E-01
_DMY_SCF=-0.2816583629782787    
_DMZ_SCF=  1.232847992916126    
_FREQUENCIES= 0.2575142435587586E-04
_HOMO=  14.10000000000000    
_EHOMO=-0.4192591220018340    
_LUMO=  15.10000000000000    
_ELUMO= 0.1331424639138684    
_ENERGY= -191.1318343211354    
_ENERGY_METHOD=HF
_ENERGY_BASIS=6-311G(D,P)
_GEOMETRY_METHOD=HF
_GEOMETRY_BASIS=6-311G(D,P)
_ENUC=  78.95411428560848    
_GRADENERG= -191.1318339185038    
_GRADEXFAC=  9999.000000000000    
_GRADMETHOD=  1.000000000000000    
_NMRMETHOD=  0.000000000000000    
_NMRMAGNET=  0.000000000000000    
_VIRIAL= 0.5511799677973645E-03
!GRID_FREEZE= -1.000000000000000    
!NEESE_INDEX=  0.000000000000000    
_ITERATIONS=  10.00000000000000    
_LASTNELEC=  28.00000000000000    
_LASTSPIN=  0.000000000000000    
_LASTSYM=  1.000000000000000    
_MPP_PROG=  1.000000000000000    
_MSNSTATES=  0.000000000000000    
_RS2PHASE=  0.000000000000000    
_IPROC_MPP=  0.000000000000000    
_IPROC_MPPX=  0.000000000000000    
_NPROC_MPP=  6.000000000000000    
_NPROC_MPPX=  6.000000000000000    
_NPROC_SMP=  8.000000000000000    
_NUMSTEP=  0.000000000000000    
_OPTCONVMX= 0.2691211159070159E-01
_OPTCONVRMS= 0.1175909637986837E-01
_OPTGRAD= 0.2847064801569525E-03
_OPTGRADMX= 0.2561555050299879E-03
_OPTGRADRMS= 0.1355745143604536E-04
_OPTSTEP=  35.00000000000000    
_ORBITAL=  2100.200000000000    
_PI=  3.141592653589793    
_SEIG_MIN= 0.8172220767131059E-02
_SEWPROP=TRUE
_STATUS=  1.000000000000000    
_SYSTOT=  6.050000000000000    
_VERSION=  2022002.000000000    
_WALLTOT=  158.0200000000000    
_ZPE= 0.8061856546742546E-01
_DATE=25-Aug-25
_LASTORB=0
_OUTPUT=/home/zwa/Overlap_Integral_Project/overlap_integral_gaussian/molpro_files/methanolwaterdimer/methanolwateracceptor.out
_PGROUP=C1
_TIME=15:07:38
_LIBMOL=/usr/local/molpro/molpro_2022.2.3_sockets/lib/
_VIGRDC=  0.000000000000000    
!VIBCNT=  0.000000000000000    
!RGHFCNT=  0.000000000000000    
!SURFREC=  0.000000000000000    
!XSURFREC=  0.000000000000000    
!XPOLYREC=  0.000000000000000    
!ROTREC=  0.000000000000000    
!POLYREC=  0.000000000000000    
!DIPREC=  0.000000000000000    
!DIP4DREC=  0.000000000000000    
!DIPROT=  0.000000000000000    
!DIP4DROT=  0.000000000000000    
!PTREC=  0.000000000000000    
!PT4DREC=  0.000000000000000    
!VSCFREC=  0.000000000000000    
!VCIREC=  0.000000000000000    
!PVCIREC=  0.000000000000000    
!VMP2REC=  0.000000000000000    
!VMCSCFREC=  0.000000000000000    
!VMRCIREC=  0.000000000000000    
!VIBSTATEREC=  0.000000000000000    
!VIBSTATECNT=  0.000000000000000    
!VIBINFO=  0.000000000000000    
!GAREC=  0.000000000000000    
!SCFORB=  21002.00000000000    
!DEFCORE=  3.000000000000000    
!SCORE=  0.000000000000000    
!NEWMOL=  0.000000000000000    
!NEWSYM=  0.000000000000000    
_SLFILES=slscratch
_NGSSTO=  9.000000000000000    
_SIN=SIN
_COS=COS
_TAN=TAN
_ACOS=ACOS
_ASIN=ASIN
_ATAN=ATAN
_COSH=COSH
_SINH=SINH
_TANH=TANH
_ABS=ABS
_MOD=MOD
_ERF=ERF
_REFC=REFC
_ERFC=ERFC
_HYPOT=HYPOT
_J0=J0
_J1=J1
_JN=JN
_GAMMA=GAMMA
_LGAMMA=LGAMMA
_Y0=Y0
_Y1=Y1
_YN=YN
_EXP=EXP
_LOG=LOG
_LOG10=LOG10
_SQRT=SQRT
_INT=INT
_NINT=NINT
_MAX=MAX
_MIN=MIN
_COSMO=  0.000000000000000    
_COSMOIT=  0.000000000000000    
_COSMOES=  0.000000000000000    
_COSMOEDS=  0.000000000000000    
_COSMOEC=  0.000000000000000    
_COSMOEDCORR=  0.000000000000000    
_FEPSI=  1.000000000000000    
_SL_IsMM=  0.000000000000000    
_SL_NSYM=  1.000000000000000    
_SL_System_BitSw=  0.000000000000000    
_SL_Unique_atoms=  0.000000000000000    
_SL_GRAD=  0.000000000000000    
_SL_MAXUPD_Hess=  5.000000000000000    
_SL_N_PRINT_COD=  5.000000000000000    
_SL_PRINT_CODES=  0.000000000000000    
_SL_BasType=  0.000000000000000    
_SL_Energy_Pred=  0.000000000000000    
_SL_New_Coords=  0.000000000000000    
_SL_Total_Nuclea=  0.000000000000000    
_SL_Highest_Mltp=  0.000000000000000    
_SL_Ref_Geom=  0.000000000000000    
_SL_Symmetry_ope=  1.000000000000000    
_SL_agrad=  0.000000000000000    
_SL_GrdMax=  0.000000000000000    
_SL_GrdNorm=  0.000000000000000    
_SL_GrdRMS=  0.000000000000000    
_SL_Hss_Q=  0.000000000000000    
_SL_Hss_X=  0.000000000000000    
_SL_BMxOld=  0.000000000000000    
_SL_KtB=  0.000000000000000    
_SL_TROld=  0.000000000000000    
_SL_No_of_Intern=  0.000000000000000    
_SL_Hess=  0.000000000000000    
_SL_K=  0.000000000000000    
!LATTICE= -1.000000000000000    
!NEWLATTICE=  0.000000000000000    
!LATGRAD_VAR=FALSE
!SEW_LATTICE=  1.000000000000000    
!AIC_ONEEL=  0.000000000000000    
!LOCAL=  0.000000000000000    
!SAVEDOM= -1.000000000000000    
!RESTDOM= -1.000000000000000    
!SAVEDOM_HF= -1.000000000000000    
!RESTDOM_HF= -1.000000000000000    
!HESSREC=  5300.200000000000    
!FREQREC=  5400.200000000000    
!NMODREC=  5450.200000000000    
!GTASKS=  0.000000000000000    
!HTASKS=  0.000000000000000    
!SAVEDOM_EOM= -1.000000000000000    
!RESTDOM_EOM= -1.000000000000000    
!GRADSTATE= -1.000000000000000    
!DEBUG=  0.000000000000000    
!CFIT_CPHF=  0.000000000000000    
!RDOMAUX_CPHF=  0.000000000000000    
!THRAO_CPHF= 0.1000000000000000E-11
!THRMO_CPHF= 0.1000000000000000E-11
!THROV_CPHF= 0.1000000000000000E-11
!THRSW_CPHF= 0.1000000000000000E-11
!THRPROD_CPHF= 0.1000000000000000E-11
!THRAOPR_CPHF= 0.1000000000000000E-11
!CFIT_SCFGRD=  0.000000000000000    
!RDOMAUX_SCFGRD=  0.000000000000000    
!THRAO_SCFGRD= 0.1000000000000000E-11
!THRMO_SCFGRD= 0.1000000000000000E-11
!THROV_SCFGRD= 0.1000000000000000E-11
!THRSW_SCFGRD= 0.1000000000000000E-11
!THRPROD_SCFGRD= 0.1000000000000000E-11
!THRAOPR_SCFGRD= 0.1000000000000000E-11
!LOCFIT_SCF=  0.000000000000000    
!LOCFIT_MP2=  0.000000000000000    
_RIDOM=  0.000000000000000    
!CC2_METHOD=  0.000000000000000    
_BASIS2006=FALSE
_SVDDEL= -1.000000000000000    
_SVDDELA= -1.000000000000000    
_SVDDELP= -1.000000000000000    
_SVDDELF= -1.000000000000000    
_SVDDELS= -1.000000000000000    
_SVDDEL_ABS= -1.000000000000000    
_SVDDELA_ABS= -1.000000000000000    
_SVDDELP_ABS= -1.000000000000000    
_SVDDELF_ABS= -1.000000000000000    
_SVDDELS_ABS= -1.000000000000000    
_MAXBASIS=  0.000000000000000    
!OPT_CONICAL=  0.000000000000000    
!CLEARSP_JGRID=  0.000000000000000    
_GRDHYBR=  0.000000000000000    
_STATEGRAD=  1.000000000000000    
_4EXT_NDISKS=  1.000000000000000    
!EMBEDFLAG=  1.000000000000000    
!EMBED=FALSE
!EMBED_F12=FALSE
!EMBEDNUC=  0.000000000000000    
_EMBEDENERGY=  0.000000000000000    
!EMBED_DFC=FALSE
!NUM_VOIDS=  0.000000000000000    
_IBODY=  0.000000000000000    
_EMBE_CORR=  0.000000000000000    
!EMBED_PROJ=FALSE
!EMB_PROJ_ZMU=  1000000.000000000    
!CORRECTION_HF=  0.000000000000000    
!EMBED_AORB=  0.000000000000000    
!EMBED_NACORR=  0.000000000000000    
!EMBED_MP2=FALSE
!EMBED_TRUNC_PERTURBATION=FALSE
!EMBED_FROZEN=  0.000000000000000    
!EMBED_ACTIVE=  0.000000000000000    
_CHANGE_BASIS=FALSE
_RESTORE_BASIS=FALSE
_FIX_EMBED_GUESS=FALSE
_EMBED_SCF=FALSE
_HUZINAGA_T=FALSE
_HUZINAGA_F=FALSE
_HUZINAGA=FALSE
_HUZINAGA_CORRECT=FALSE
!FASTLATGRAD=  1.000000000000000    
!FASTVLAMBDA= -1.000000000000000    
!IFORCE= -1.000000000000000    
!USESYM= -1.000000000000000    
_SINDEX=  0.000000000000000    
_AVDOM_OSV=  0.000000000000000    
_AVDOM_PNO=  0.000000000000000    
_AVDOM_PAO=  0.000000000000000    
_AVDOM_LMO=  0.000000000000000    
_CC2OSV_FLAG=  0.000000000000000    
_EOMCCSD_CONV=FALSE
_TMADC2_FLAG=FALSE
_PROPADC2_FLAG=FALSE
_LEN_VirQ=  0.000000000000000    
_GRDCC2LR_FLAG=FALSE
_GRDADC2_FLAG=FALSE
_RO_VGLOBAL=  0.000000000000000    
_OPT=FALSE
_FREQ=FALSE
_HESS=FALSE
_CMRCC_callName=EMPTY
_CMRCC_callCount=  0.000000000000000    
_GECCO_CIROOT=  1.000000000000000    
_SYM_CATION=  1.000000000000000    
_MON_A=FALSE
_MON_B=FALSE
GX1=-0.1228548597783608E-02
GY1=-0.4973074107598518    
GZ1= -1.600105818516147    
GX2=-0.8824214704858313    
GY2= -1.113853081903206    
GZ2= -1.425632798515871    
GX3= 0.8829990854734727    
GY3= -1.112081633591459    
GZ3= -1.434803495511187    
GX4=-0.6848757707261252E-02
GY4=-0.1878529692135864    
GZ4= -2.638316154006815    
GX5= 0.1659346893244967E-02
GY5= 0.6521820865071224    
GZ5=-0.8103672000654654    
GX6= 0.1216735832654519E-02
GY6= 0.4002946617571342    
GZ6= 0.9897023255477855E-01
GX7=-0.1638342237559566E-02
GY7=-0.1653574209041329    
GZ7=  2.032346600101365    
GX8= 0.7626338141290223    
GY8= 0.8207404369973678E-01
GZ8=  2.524205570254949    
GX9=-0.7432846481359281    
GY9= 0.1265145732466749    
GZ9=  2.534068245219737    
CX1=-0.2321620380604041E-02
CY1=-0.9397748060828908    
CZ1= -3.023761767415665    
HX2= -1.667534905707764    
HY2= -2.104877267867415    
HZ2= -2.694055543478789    
HX3=  1.668626439839885    
HY3= -2.101529715714284    
HZ3= -2.711385649171864    
HX4=-0.1294227636064368E-01
HY4=-0.3549906635114348    
HZ4= -4.985694961248865    
OX5= 0.3135711173981623E-02
OY5=  1.232445526885453    
OZ5= -1.531372068503548    
HX6= 0.2299297489735534E-02
HY6= 0.7564472798706928    
HZ6= 0.1870266340190527    
OX7=-0.3096018127394152E-02
OY7=-0.3124802381832794    
OZ7=  3.840578464505913    
HX8=  1.441169042082607    
HY8= 0.1550974645330697    
HZ8=  4.770057210036667    
HX9= -1.404604417615737    
HY9= 0.2390778942101220    
HZ9=  4.788694964576321    
[Atoms] Angs
C     1    6        -0.0012285486       -0.4973074108       -1.6001058185
H     2    1        -0.8824214705       -1.1138530819       -1.4256327985
H     3    1         0.8829990855       -1.1120816336       -1.4348034955
H     4    1        -0.0068487577       -0.1878529692       -2.6383161540
O     5    8         0.0016593469        0.6521820865       -0.8103672001
H     6    1         0.0012167358        0.4002946618        0.0989702326
O     7    8        -0.0016383422       -0.1653574209        2.0323466001
H     8    1         0.7626338141        0.0820740437        2.5242055703
H     9    1        -0.7432846481        0.1265145732        2.5340682452
[GTO]
   1 0
 s    6  1.00
  0.4563240000D+04  0.1966650249D-02
  0.6820240000D+03  0.1523060193D-01
  0.1549730000D+03  0.7612690966D-01
  0.4445530000D+02  0.2608010331D+00
  0.1302900000D+02  0.6164620782D+00
  0.1827730000D+01  0.2210060280D+00
 s    3  1.00
  0.2096420000D+02  0.1146600807D+00
  0.4803310000D+01  0.9199996477D+00
  0.1459330000D+01 -0.3030682134D-02
 s    1  1.00
  0.4834560000D+00  0.1000000000D+01
 s    1  1.00
  0.1455850000D+00  0.1000000000D+01
 p    3  1.00
  0.2096420000D+02  0.4024869267D-01
  0.4803310000D+01  0.2375939567D+00
  0.1459330000D+01  0.8158538515D+00
 p    1  1.00
  0.4834560000D+00  0.1000000000D+01
 p    1  1.00
  0.1455850000D+00  0.1000000000D+01
 d    1  1.00
  0.6260000000D+00  0.1000000000D+01
  
   2 0
 s    3  1.00
  0.3386500000D+02  0.2549381454D-01
  0.5094790000D+01  0.1903731086D+00
  0.1158790000D+01  0.8521614860D+00
 s    1  1.00
  0.3258400000D+00  0.1000000000D+01
 s    1  1.00
  0.1027410000D+00  0.1000000000D+01
 p    1  1.00
  0.7500000000D+00  0.1000000000D+01
  
   3 0
 s    3  1.00
  0.3386500000D+02  0.2549381454D-01
  0.5094790000D+01  0.1903731086D+00
  0.1158790000D+01  0.8521614860D+00
 s    1  1.00
  0.3258400000D+00  0.1000000000D+01
 s    1  1.00
  0.1027410000D+00  0.1000000000D+01
 p    1  1.00
  0.7500000000D+00  0.1000000000D+01
  
   4 0
 s    3  1.00
  0.3386500000D+02  0.2549381454D-01
  0.5094790000D+01  0.1903731086D+00
  0.1158790000D+01  0.8521614860D+00
 s    1  1.00
  0.3258400000D+00  0.1000000000D+01
 s    1  1.00
  0.1027410000D+00  0.1000000000D+01
 p    1  1.00
  0.7500000000D+00  0.1000000000D+01
  
   5 0
 s    6  1.00
  0.8588500000D+04  0.1895150083D-02
  0.1297230000D+04  0.1438590063D-01
  0.2992960000D+03  0.7073200310D-01
  0.8737710000D+02  0.2400010105D+00
  0.2567890000D+02  0.5947970261D+00
  0.3740040000D+01  0.2808020123D+00
 s    3  1.00
  0.4211750000D+02  0.1138890124D+00
  0.9628370000D+01  0.9208111006D+00
  0.2853320000D+01 -0.3274470358D-02
 s    1  1.00
  0.9056610000D+00  0.1000000000D+01
 s    1  1.00
  0.2556110000D+00  0.1000000000D+01
 p    3  1.00
  0.4211750000D+02  0.3651139738D-01
  0.9628370000D+01  0.2371529830D+00
  0.2853320000D+01  0.8197019412D+00
 p    1  1.00
  0.9056610000D+00  0.1000000000D+01
 p    1  1.00
  0.2556110000D+00  0.1000000000D+01
 d    1  1.00
  0.1292000000D+01  0.1000000000D+01
  
   6 0
 s    3  1.00
  0.3386500000D+02  0.2549381454D-01
  0.5094790000D+01  0.1903731086D+00
  0.1158790000D+01  0.8521614860D+00
 s    1  1.00
  0.3258400000D+00  0.1000000000D+01
 s    1  1.00
  0.1027410000D+00  0.1000000000D+01
 p    1  1.00
  0.7500000000D+00  0.1000000000D+01
  
   7 0
 s    6  1.00
  0.8588500000D+04  0.1895150083D-02
  0.1297230000D+04  0.1438590063D-01
  0.2992960000D+03  0.7073200310D-01
  0.8737710000D+02  0.2400010105D+00
  0.2567890000D+02  0.5947970261D+00
  0.3740040000D+01  0.2808020123D+00
 s    3  1.00
  0.4211750000D+02  0.1138890124D+00
  0.9628370000D+01  0.9208111006D+00
  0.2853320000D+01 -0.3274470358D-02
 s    1  1.00
  0.9056610000D+00  0.1000000000D+01
 s    1  1.00
  0.2556110000D+00  0.1000000000D+01
 p    3  1.00
  0.4211750000D+02  0.3651139738D-01
  0.9628370000D+01  0.2371529830D+00
  0.2853320000D+01  0.8197019412D+00
 p    1  1.00
  0.9056610000D+00  0.1000000000D+01
 p    1  1.00
  0.2556110000D+00  0.1000000000D+01
 d    1  1.00
  0.1292000000D+01  0.1000000000D+01
  
   8 0
 s    3  1.00
  0.3386500000D+02  0.2549381454D-01
  0.5094790000D+01  0.1903731086D+00
  0.1158790000D+01  0.8521614860D+00
 s    1  1.00
  0.3258400000D+00  0.1000000000D+01
 s    1  1.00
  0.1027410000D+00  0.1000000000D+01
 p    1  1.00
  0.7500000000D+00  0.1000000000D+01
  
   9 0
 s    3  1.00
  0.3386500000D+02  0.2549381454D-01
  0.5094790000D+01  0.1903731086D+00
  0.1158790000D+01  0.8521614860D+00
 s    1  1.00
  0.3258400000D+00  0.1000000000D+01
 s    1  1.00
  0.1027410000D+00  0.1000000000D+01
 p    1  1.00
  0.7500000000D+00  0.1000000000D+01


[MO]
 Sym=      1.1
 Ene=     -20.5736
 Spin= Alpha
 Occup=    2.000000
1 0.000000197045458
2 -0.000001466462307
3 0.000015648109716
4 -0.000163025381996
5 0.000000066212530
6 -0.000001708921850
7 -0.000005196408642
8 -0.000000369144852
9 0.000003415814345
10 0.000024873789940
11 0.000000057422013
12 -0.000065556251719
13 -0.000050852243489
14 0.000004627860975
15 -0.000003179719050
16 -0.000001448141925
17 0.000000146571829
18 -0.000000075443844
19 0.000009199086377
20 -0.000001977650872
21 0.000023770888039
22 -0.000011461287624
23 0.000001832358808
24 0.000004312757542
25 -0.000000475411060
26 -0.000002192999530
27 0.000024993928250
28 -0.000012851159133
29 -0.000002012063039
30 0.000004508875794
31 -0.000000454785131
32 0.000001125153165
33 0.000034073113987
34 -0.000005495507348
35 0.000000086423223
36 -0.000000834138415
37 0.000010566916312
38 -0.000021068522066
39 -0.000024390532614
40 0.000050096436606
41 -0.000127226401991
42 -0.000000032797832
43 -0.000003887523271
44 -0.000012881084191
45 0.000000099643158
46 0.000013953362725
47 0.000048237318299
48 -0.000000113115325
49 -0.000030569918150
50 -0.000171343950921
51 0.000001189628830
52 -0.000000857228174
53 -0.000000332400656
54 -0.000000020568583
55 0.000000030581533
56 0.000001334246168
57 -0.000032048898890
58 0.000145339415596
59 0.000232189455060
60 -0.000000149558691
61 -0.000011196979769
62 0.000036558238608
63 0.55142857283848
64 0.47166964213728
65 0.005614068799013
66 -0.000545034232653
67 0.000035213360297
68 0.000860878700988
69 0.001458661685425
70 -0.000012323986432
71 -0.000286901862485
72 -0.000554131716334
73 0.000001759083360
74 0.000005417922470
75 0.000185762133588
76 -0.000094312968116
77 0.000085466603065
78 0.000008846365051
79 0.000005718736808
80 -0.000000987011065
81 -0.000057218656591
82 0.000194198727039
83 0.000122152707183
84 0.000051465631541
85 -0.000067532516963
86 0.000007147395872
87 -0.000027631838999
88 0.000194129744322
89 0.000122774463431
90 0.000051051536924
91 0.000067424608828
92 0.000003136458260
93 -0.000028550165082
 Sym=      2.1
 Ene=     -20.5110
 Spin= Alpha
 Occup=    2.000000
1 -0.000002595141138
2 -0.000034293689545
3 0.000105545402290
4 0.000474917267664
5 0.000000036083504
6 0.000032825456596
7 0.000003354215492
8 0.000000720536187
9 0.000190444213459
10 0.000198600041649
11 -0.000000031337086
12 0.000217448977712
13 -0.000027347729620
14 -0.000053476288451
15 0.000034261616087
16 0.000019214672364
17 0.000000233852759
18 0.000000297674092
19 0.000125529919409
20 0.000007436522237
21 -0.000042458449301
22 -0.000014696688480
23 0.000017806062520
24 -0.000025128184684
25 -0.000006264016305
26 0.000007342780178
27 -0.000042825516732
28 -0.000014279643094
29 -0.000017725661382
30 -0.000025089357330
31 -0.000005924287205
32 0.000029625033402
33 -0.000121698797900
34 -0.000054689945312
35 0.000000059504726
36 -0.000007015807489
37 0.000012580749011
38 0.55143374529718
39 0.47165915842841
40 0.005698244530107
41 -0.000871221545608
42 -0.000003224076433
43 -0.001615090895240
44 0.000519502450529
45 0.000001128030462
46 0.000589611389360
47 -0.000164737942769
48 0.000000313594868
49 0.000041351823370
50 0.000128606891002
51 0.000139094918704
52 -0.000067520065105
53 -0.000071574853599
54 -0.000000529823305
55 -0.000000292536674
56 -0.000092042646790
57 0.000199930040992
58 0.000093342643274
59 0.000201417097132
60 -0.000000076962985
61 -0.000039380590283
62 -0.000071886391449
63 0.000021717698964
64 0.000016997450053
65 0.000015067642432
66 -0.000054190743155
67 0.000000041786476
68 -0.000000431784930
69 0.000009641089456
70 -0.000000220202326
71 -0.000001086329871
72 -0.000028463463359
73 -0.000000293495386
74 -0.000016117481247
75 0.000075390741223
76 -0.000001787673119
77 0.000002005987553
78 -0.000000218314433
79 0.000000110421969
80 0.000000005449990
81 0.000001467420395
82 -0.000003621252878
83 0.000019988459318
84 -0.000031090333070
85 -0.000000439463981
86 0.000002337726739
87 -0.000010096851990
88 -0.000003545270524
89 0.000019360738285
90 -0.000030947366152
91 0.000000363915219
92 0.000002384846714
93 -0.000009962412335
 Sym=      3.1
 Ene=     -11.2462
 Spin= Alpha
 Occup=    2.000000
1 0.56344160167698
2 0.46655870094283
3 0.004122086239116
4 -0.001217080366461
5 0.000002569322915
6 0.000686347621498
7 0.000545339632074
8 -0.000002325349500
9 -0.000548044212317
10 -0.000441733572998
11 0.000000446858472
12 0.000096572419550
13 0.000101197164544
14 0.000104350460128
15 -0.000129255635684
16 0.000024905175555
17 -0.000000582652479
18 -0.000000483841853
19 -0.000215302092898
20 0.000349644012071
21 0.000078552593732
22 0.000259549922198
23 -0.000018181398076
24 0.000020553112460
25 0.000027268464449
26 0.000349677107600
27 0.000079143456522
28 0.000259301039600
29 0.000018211444497
30 0.000020782033743
31 0.000027118376784
32 0.000348769007119
33 0.000057351858082
34 0.000276213807425
35 -0.000000087941571
36 0.000042032579830
37 -0.000011283089700
38 -0.000074578622705
39 -0.000133964840078
40 0.000319026648666
41 0.000304110848403
42 -0.000000258830103
43 -0.000099924094434
44 -0.000058167291367
45 -0.000001102933900
46 -0.000444125819923
47 -0.000332604479540
48 -0.000000195583822
49 -0.000104462161254
50 -0.000070793301817
51 -0.000098694755613
52 0.000131882391829
53 -0.000033187636216
54 0.000000617831379
55 0.000000420452383
56 0.000178820974613
57 -0.000010029880000
58 0.000043144504122
59 -0.000032747303890
60 -0.000000006954299
61 0.000007529233709
62 -0.000053242747667
63 -0.000000045111117
64 0.000000036774359
65 -0.000001240184238
66 0.000008580481923
67 0.000000020645005
68 0.000000847177911
69 -0.000000457112300
70 -0.000000050831586
71 -0.000001677436005
72 0.000000616370776
73 0.000000186551783
74 0.000007060720703
75 0.000000922291153
76 0.000000256470779
77 0.000000034361215
78 -0.000000290831994
79 -0.000000006407677
80 0.000000005962456
81 0.000000181673403
82 -0.000000971093493
83 -0.000000169029697
84 -0.000002940573411
85 0.000001294609736
86 -0.000000628869434
87 0.000000408767294
88 -0.000000924641289
89 -0.000000398824571
90 -0.000002437791539
91 -0.000001305184485
92 -0.000000552253925
93 0.000000401884185
 Sym=      4.1
 Ene=      -1.3795
 Spin= Alpha
 Occup=    2.000000
1 -0.002858008389081
2 -0.004661751024210
3 0.011281393216389
4 0.003532645058378
5 0.000005845014832
6 0.002523181575744
7 0.002101771383428
8 0.000015728606073
9 0.004764696686376
10 0.003740735787730
11 0.000013930818243
12 0.000694732492984
13 0.002674414089735
14 -0.001057836213633
15 0.001082919140904
16 -0.000025082927271
17 0.000005346857629
18 0.000003519788749
19 0.001859577082209
20 0.001263181030348
21 0.000812680216651
22 0.000797032495545
23 0.000348909484197
24 0.000297456869466
25 -0.000158082007228
26 0.001262860116467
27 0.000800391008300
28 0.000791448160453
29 -0.000348390480010
30 0.000294096778452
31 -0.000155495876698
32 0.001001842062919
33 0.002429929021458
34 0.000347383547612
35 0.000002991279575
36 -0.000187628075482
37 0.000596961723592
38 -0.008941872261547
39 -0.014891167086358
40 0.041732235440052
41 0.030157152044463
42 -0.000006003899133
43 -0.002817791083326
44 0.002218987237055
45 -0.000011783309994
46 -0.005123662762388
47 0.002394577912890
48 -0.000003511484935
49 -0.001321458781125
50 0.002954897304222
51 -0.000696904177815
52 0.000129171931501
53 0.000567732246314
54 0.000002264248841
55 -0.000000096433071
56 -0.000049412699481
57 0.010577516595285
58 0.008729266076096
59 -0.003047350652780
60 0.000003792133592
61 0.000444873128164
62 -0.002373010335109
63 -0.11323323975462
64 -0.18915910973984
65 0.53713059008204
66 0.37576806091644
67 0.000732131301897
68 0.018227302707153
69 0.031478738658459
70 0.001227769633282
71 0.030418810790742
72 0.052697598325126
73 0.000439548074592
74 0.011830230229739
75 0.012836355206933
76 0.005661662884283
77 -0.005983336382072
78 0.000321673497789
79 -0.000366878076777
80 0.000102736499822
81 0.005021172524185
82 0.095288296912228
83 0.078259593386913
84 -0.002681460388416
85 -0.023984272677999
86 -0.006301659873427
87 -0.011941141835784
88 0.095329337165149
89 0.078268543602695
90 -0.002678501538503
91 0.023414063190275
92 -0.007702545412839
93 -0.012253642833832
 Sym=      5.1
 Ene=      -1.3351
 Spin= Alpha
 Occup=    2.000000
1 -0.038499374714361
2 -0.062882130138663
3 0.15671012231873
4 0.006440456651982
5 0.000083177963320
6 0.033600872422146
7 0.025343312991413
8 0.000159827181455
9 0.064961256440272
10 0.050063989640559
11 0.000001960063265
12 -0.004006214216911
13 0.001647056909111
14 -0.014500286149177
15 0.012655967071850
16 0.001844319077327
17 0.000083704801239
18 0.000061827168776
19 0.023571281183461
20 0.015243108334592
21 0.029844475013152
22 -0.000237577278055
23 0.006537619857166
24 0.005528787606007
25 -0.000717872699786
26 0.015230247740354
27 0.029839736875980
28 -0.000233533130097
29 -0.006557711171356
30 0.005518163600525
31 -0.000648387088822
32 0.015296285913069
33 0.031145291524565
34 0.001056110851820
35 0.000044251158972
36 -0.001693178505714
37 0.008241424768749
38 -0.10893397459333
39 -0.18190155593237
40 0.51418383080310
41 0.39077081898370
42 -0.000076977145577
43 -0.033662681139953
44 0.009953149637874
45 -0.000135770925567
46 -0.059461954001328
47 0.014851020365726
48 -0.000065043328039
49 -0.031631009237934
50 -0.001654308042814
51 -0.007961528719945
52 0.002786189991635
53 0.005175338728310
54 0.000028160971271
55 0.000006953949511
56 0.001736205304017
57 0.088494063464014
58 0.068640113186110
59 -0.005977687512613
60 0.000014353521875
61 0.004422461646466
62 -0.026250738868576
63 0.010013183186825
64 0.016760953559556
65 -0.047995856564118
66 -0.031741928281781
67 -0.000069769017870
68 -0.001264965187440
69 -0.005129075641599
70 -0.000112619408321
71 -0.002359659530111
72 -0.006899042327743
73 -0.000032612650558
74 0.000107721287883
75 -0.005686262776955
76 -0.000489929040109
77 0.000567403245676
78 -0.000077474205567
79 0.000033003351258
80 -0.000012116286805
81 -0.000528048880705
82 -0.009046915306615
83 -0.008661044499048
84 0.001797586075373
85 0.002378483205846
86 0.000560189127197
87 0.001270182273199
88 -0.009051708158747
89 -0.008655561253187
90 0.001790702667299
91 -0.002324506144456
92 0.000698874660010
93 0.001300499665312
 Sym=      6.1
 Ene=      -0.9048
 Spin= Alpha
 Occup=    2.000000
1 -0.094046320062103
2 -0.15622476918928
3 0.40667499932053
4 0.23939880712199
5 -0.000067033637986
6 -0.021115180947104
7 -0.023599788374075
8 -0.000063767162809
9 -0.016793995996843
10 -0.025215409160252
11 -0.000036033875997
12 -0.023234342723531
13 -0.012137315588668
14 -0.000271593459088
15 0.001295611860907
16 -0.001024018401819
17 -0.000000635675447
18 0.000000269601365
19 -0.002635963022061
20 0.082868489118495
21 0.11582570598232
22 0.005115447620948
23 0.016118593499199
24 0.010267342808803
25 -0.004733984664579
26 0.082900462490216
27 0.11589611327478
28 0.005135647751740
29 -0.016193580434542
30 0.010236859663619
31 -0.004564950371426
32 0.087752049354560
33 0.12542555906979
34 0.008256352101044
35 0.000107254435256
36 -0.008056722913482
37 0.018820666184379
38 0.031961762055368
39 0.053717434207851
40 -0.15491772953304
41 -0.14928429149790
42 -0.000124149764490
43 -0.043613779410508
44 -0.077365989798911
45 -0.000194671575368
46 -0.068979484459286
47 -0.12365267221178
48 -0.000129498633682
49 -0.043532699106501
50 -0.060791704080811
51 -0.001036762256412
52 0.008604156160914
53 -0.007567393904502
54 0.000028546067289
55 0.000023113081687
56 0.010604083033944
57 -0.073662685488122
58 -0.082413530602872
59 -0.014493453959256
60 -0.000026155652105
61 -0.008532213563689
62 0.015340228914141
63 -0.000622461597066
64 -0.001030185459917
65 0.002727263619439
66 0.001107632471739
67 0.000033334918735
68 -0.001207064554667
69 0.006332702870316
70 0.000057134739406
71 -0.001793898518039
72 0.010172094008201
73 0.000000238450241
74 -0.002418221524462
75 0.005573005658227
76 0.000176257439587
77 -0.000276799667218
78 0.000100542227631
79 -0.000010827430619
80 0.000011706747285
81 0.000380261042963
82 0.002725717829546
83 0.003554654137021
84 0.000546658498909
85 -0.000864987943493
86 -0.000298845542854
87 0.000304081129168
88 0.002690690283242
89 0.003541023234020
90 0.000486990764731
91 0.000845532669937
92 -0.000348590566389
93 0.000298976627602
 Sym=      7.1
 Ene=      -0.7481
 Spin= Alpha
 Occup=    2.000000
1 0.000016409111875
2 0.000027263897106
3 -0.000081994680976
4 0.000000945743721
5 0.000881008901747
6 -0.000002744444581
7 0.000040242655884
8 0.001678039509336
9 -0.000024498876347
10 0.000056378482824
11 -0.000583814516326
12 -0.000026149754990
13 0.000183980365855
14 0.000010726925957
15 -0.000000237328544
16 -0.000010489597412
17 -0.000116140875844
18 0.000176102037840
19 0.000010596657130
20 -0.000621115741830
21 -0.000419477071723
22 -0.002583300902848
23 -0.000037950782103
24 -0.000069990693030
25 -0.000025056876973
26 0.000622584435896
27 0.000262364209636
28 0.002663898787975
29 -0.000017579697241
30 0.000059552167063
31 0.000017347026043
32 -0.000050340707651
33 -0.000013549786997
34 0.000020976776703
35 0.000076510813856
36 0.000000860204138
37 -0.000000144575021
38 0.000001712044648
39 0.000002749627487
40 -0.000004559688882
41 -0.000072661322835
42 0.002063612187579
43 -0.000042902741930
44 0.000023567641833
45 0.002727422514779