[Molden Format]
[Molpro variables]
_NUMVAR=  1067.000000000000    
_AVOGAD= 0.6022140760000000E+24
_BOLTZ= 0.1380649000000000E-22
_CLIGHTSI=  299792458.0000000    
_JOULE= 0.4359744722207100E-17
_JPCAL=  4.184000000000000    
_PLANCK= 0.6626070150000000E-33
_BOHR= 0.5291772109030000E-10
_ECHARG= 0.1602176634000000E-18
_ENULL= 0.8854187812800001E-11
_MU= 0.1660539066600000E-26
_EMASS= 0.9109383701500001E-30
_AMU2AU=  1822.888486217313    
_CLIGHT=  29979245800.00000    
_EV= 0.3674932217565494E-01
_KJOULE= 0.3808798847133432E-03
_KJOULE/MOL= 0.3808798847133432E-03
_CM= 0.4556335252912009E-05
_CM-1= 0.4556335252912009E-05
_DEB2SI= 0.3335640951981520E-29
_KCAL= 0.1593601437640628E-02
_KCAL/MOL= 0.1593601437640628E-02
_KELVIN= 0.3166811563455608E-05
_HERTZ= 0.1519829846057038E-15
_HZ= 0.1519829846057038E-15
_TOA= 0.5291772109030000    
_TOANG= 0.5291772109030000    
_TORAD= 0.1745329251994330E-01
_TOCM=  219474.6313631965    
_TODEBYE=  2.541746473194078    
_TOE= 0.4803204712570263E-09
_TOEV=  27.21138624598803    
_TOHERTZ=  6579683920501656.    
_TOHZ=  6579683920501656.    
_TOK=  315775.0248040668    
_TOKCAL=  627.5094740630558    
_TOKELVIN=  315775.0248040668    
_TOKJ=  2625.499639479825    
_TOKJOULE=  2625.499639479825    
_TOKG= 0.1660539066600000E-26
_ANG=  1.889726124625770    
_ANGSTROM=  1.889726124625770    
_RPAREF=  0.000000000000000    
_RPADISS=  0.000000000000000    
_IGNORE_UNDEF=  2.000000000000000    
_STRICTCHECK=  0.000000000000000    
!SEWARD=  0.000000000000000    
!MULTI=  0.000000000000000    
!DFMULTI=  0.000000000000000    
_SEW_ONEEL=  0.000000000000000    
_CPPDONE=FALSE
_DKROLL_DONE=  0.000000000000000    
_FNUC_DONE=  0.000000000000000    
_FOCKDONE=TRUE
_GRADONE=FALSE
_HESSDONE=TRUE
_INTDONE=TRUE
_SCFDONE=TRUE
_MODUL_BLOCK=FALSE
_MODUL_CUDA=FALSE
_MODUL_SLATER=FALSE
_MODUL_MRCC=FALSE
_MODUL_NBO6=FALSE
_MODUL_NECI=FALSE
_MODUL_AIMS=TRUE
_MODUL_GECCO=FALSE
_ISWINDOWS=FALSE
_MRCC_EXEC=
_FITC_AO_SAVED=FALSE
_FITC_MO_SAVED=FALSE
_SHARED_FS=TRUE
_LSTYP=SEWARD
_INTYP=INTS
_GEOMTYP=ZMAT
_GRADTYP=ALASKA
_DIRECT=FALSE
_DKHO= -1.000000000000000    
_FNUC=  0.000000000000000    
_SYNCM=  0.000000000000000    
_BASIS=6-311G(D,P)
_ZCENTRE=MASS
_ZORIENT=  1.000000000000000    
_NELEC=  28.00000000000000    
!SPIN=  0.000000000000000    
_OPTCONV= 0.1889753002324113E-01
_QSDSTEP=  0.000000000000000    
_QSDIRC=  0.000000000000000    
_PROGRAM=FREQ
_CPUSTEP=  181.1300000000000    
_SYSSTEP=  1.760000000000000    
_WALLSTEP=  72.02000000000000    
!DFSCF=  0.000000000000000    
!SCSGRD=  0.000000000000000    
_CPUTOT=  377.0500000000000    
_DFTEXFAC=  1.000000000000000    
_DMX= 0.3351395068012506    
_DMY= 0.3065638641598695    
_DMZ=  1.230546138051813    
_DMX_SCF= 0.3351395068012506    
_DMY_SCF= 0.3065638641598695    
_DMZ_SCF=  1.230546138051813    
_FREQUENCIES= 0.3802273506098302E-04
_HOMO=  14.10000000000000    
_EHOMO=-0.4649830098537234    
_LUMO=  15.10000000000000    
_ELUMO= 0.1428012179800297    
_ENERGY= -191.1318287445157    
_ENERGY_METHOD=HF
_ENERGY_BASIS=6-311G(D,P)
_GEOMETRY_METHOD=HF
_GEOMETRY_BASIS=6-311G(D,P)
_ENUC=  79.95524281791425    
_GRADENERG= -191.1318285524467    
_GRADEXFAC=  9999.000000000000    
_GRADMETHOD=  1.000000000000000    
_NMRMETHOD=  0.000000000000000    
_NMRMAGNET=  0.000000000000000    
_VIRIAL= 0.2459281425135498E-03
!GRID_FREEZE= -1.000000000000000    
!NEESE_INDEX=  0.000000000000000    
_ITERATIONS=  10.00000000000000    
_LASTNELEC=  28.00000000000000    
_LASTSPIN=  0.000000000000000    
_LASTSYM=  1.000000000000000    
_MPP_PROG=  1.000000000000000    
_MSNSTATES=  0.000000000000000    
_RS2PHASE=  0.000000000000000    
_IPROC_MPP=  0.000000000000000    
_IPROC_MPPX=  0.000000000000000    
_NPROC_MPP=  6.000000000000000    
_NPROC_MPPX=  6.000000000000000    
_NPROC_SMP=  8.000000000000000    
_NUMSTEP=  0.000000000000000    
_OPTCONVMX= 0.1270475062309329E-01
_OPTCONVRMS= 0.6299176674413906E-02
_OPTGRAD= 0.2751082276644399E-03
_OPTGRADMX= 0.1645948227851188E-03
_OPTGRADRMS= 0.1310039179354475E-04
_OPTSTEP=  40.00000000000000    
_ORBITAL=  2100.200000000000    
_PI=  3.141592653589793    
_SEIG_MIN= 0.8334601595333276E-02
_SEWPROP=TRUE
_STATUS=  1.000000000000000    
_SYSTOT=  6.590000000000000    
_VERSION=  2022002.000000000    
_WALLTOT=  171.7900000000000    
_ZPE= 0.8097183471175340E-01
_DATE=25-Aug-25
_LASTORB=0
_OUTPUT=/home/zwa/Overlap_Integral_Project/overlap_integral_gaussian/molpro_files/methanolwaterdimer/methanolwaterdonor.out
_PGROUP=C1
_TIME=15:12:39
_LIBMOL=/usr/local/molpro/molpro_2022.2.3_sockets/lib/
_VIGRDC=  0.000000000000000    
!VIBCNT=  0.000000000000000    
!RGHFCNT=  0.000000000000000    
!SURFREC=  0.000000000000000    
!XSURFREC=  0.000000000000000    
!XPOLYREC=  0.000000000000000    
!ROTREC=  0.000000000000000    
!POLYREC=  0.000000000000000    
!DIPREC=  0.000000000000000    
!DIP4DREC=  0.000000000000000    
!DIPROT=  0.000000000000000    
!DIP4DROT=  0.000000000000000    
!PTREC=  0.000000000000000    
!PT4DREC=  0.000000000000000    
!VSCFREC=  0.000000000000000    
!VCIREC=  0.000000000000000    
!PVCIREC=  0.000000000000000    
!VMP2REC=  0.000000000000000    
!VMCSCFREC=  0.000000000000000    
!VMRCIREC=  0.000000000000000    
!VIBSTATEREC=  0.000000000000000    
!VIBSTATECNT=  0.000000000000000    
!VIBINFO=  0.000000000000000    
!GAREC=  0.000000000000000    
!SCFORB=  21002.00000000000    
!DEFCORE=  3.000000000000000    
!SCORE=  0.000000000000000    
!NEWMOL=  0.000000000000000    
!NEWSYM=  0.000000000000000    
_SLFILES=slscratch
_NGSSTO=  9.000000000000000    
_SIN=SIN
_COS=COS
_TAN=TAN
_ACOS=ACOS
_ASIN=ASIN
_ATAN=ATAN
_COSH=COSH
_SINH=SINH
_TANH=TANH
_ABS=ABS
_MOD=MOD
_ERF=ERF
_REFC=REFC
_ERFC=ERFC
_HYPOT=HYPOT
_J0=J0
_J1=J1
_JN=JN
_GAMMA=GAMMA
_LGAMMA=LGAMMA
_Y0=Y0
_Y1=Y1
_YN=YN
_EXP=EXP
_LOG=LOG
_LOG10=LOG10
_SQRT=SQRT
_INT=INT
_NINT=NINT
_MAX=MAX
_MIN=MIN
_COSMO=  0.000000000000000    
_COSMOIT=  0.000000000000000    
_COSMOES=  0.000000000000000    
_COSMOEDS=  0.000000000000000    
_COSMOEC=  0.000000000000000    
_COSMOEDCORR=  0.000000000000000    
_FEPSI=  1.000000000000000    
_SL_IsMM=  0.000000000000000    
_SL_NSYM=  1.000000000000000    
_SL_System_BitSw=  0.000000000000000    
_SL_Unique_atoms=  0.000000000000000    
_SL_GRAD=  0.000000000000000    
_SL_MAXUPD_Hess=  5.000000000000000    
_SL_N_PRINT_COD=  5.000000000000000    
_SL_PRINT_CODES=  0.000000000000000    
_SL_BasType=  0.000000000000000    
_SL_Energy_Pred=  0.000000000000000    
_SL_New_Coords=  0.000000000000000    
_SL_Total_Nuclea=  0.000000000000000    
_SL_Highest_Mltp=  0.000000000000000    
_SL_Ref_Geom=  0.000000000000000    
_SL_Symmetry_ope=  1.000000000000000    
_SL_agrad=  0.000000000000000    
_SL_GrdMax=  0.000000000000000    
_SL_GrdNorm=  0.000000000000000    
_SL_GrdRMS=  0.000000000000000    
_SL_Hss_Q=  0.000000000000000    
_SL_Hss_X=  0.000000000000000    
_SL_BMxOld=  0.000000000000000    
_SL_KtB=  0.000000000000000    
_SL_TROld=  0.000000000000000    
_SL_No_of_Intern=  0.000000000000000    
_SL_Hess=  0.000000000000000    
_SL_K=  0.000000000000000    
!LATTICE= -1.000000000000000    
!NEWLATTICE=  0.000000000000000    
!LATGRAD_VAR=FALSE
!SEW_LATTICE=  1.000000000000000    
!AIC_ONEEL=  0.000000000000000    
!LOCAL=  0.000000000000000    
!SAVEDOM= -1.000000000000000    
!RESTDOM= -1.000000000000000    
!SAVEDOM_HF= -1.000000000000000    
!RESTDOM_HF= -1.000000000000000    
!HESSREC=  5300.200000000000    
!FREQREC=  5400.200000000000    
!NMODREC=  5450.200000000000    
!GTASKS=  0.000000000000000    
!HTASKS=  0.000000000000000    
!SAVEDOM_EOM= -1.000000000000000    
!RESTDOM_EOM= -1.000000000000000    
!GRADSTATE= -1.000000000000000    
!DEBUG=  0.000000000000000    
!CFIT_CPHF=  0.000000000000000    
!RDOMAUX_CPHF=  0.000000000000000    
!THRAO_CPHF= 0.1000000000000000E-11
!THRMO_CPHF= 0.1000000000000000E-11
!THROV_CPHF= 0.1000000000000000E-11
!THRSW_CPHF= 0.1000000000000000E-11
!THRPROD_CPHF= 0.1000000000000000E-11
!THRAOPR_CPHF= 0.1000000000000000E-11
!CFIT_SCFGRD=  0.000000000000000    
!RDOMAUX_SCFGRD=  0.000000000000000    
!THRAO_SCFGRD= 0.1000000000000000E-11
!THRMO_SCFGRD= 0.1000000000000000E-11
!THROV_SCFGRD= 0.1000000000000000E-11
!THRSW_SCFGRD= 0.1000000000000000E-11
!THRPROD_SCFGRD= 0.1000000000000000E-11
!THRAOPR_SCFGRD= 0.1000000000000000E-11
!LOCFIT_SCF=  0.000000000000000    
!LOCFIT_MP2=  0.000000000000000    
_RIDOM=  0.000000000000000    
!CC2_METHOD=  0.000000000000000    
_BASIS2006=FALSE
_SVDDEL= -1.000000000000000    
_SVDDELA= -1.000000000000000    
_SVDDELP= -1.000000000000000    
_SVDDELF= -1.000000000000000    
_SVDDELS= -1.000000000000000    
_SVDDEL_ABS= -1.000000000000000    
_SVDDELA_ABS= -1.000000000000000    
_SVDDELP_ABS= -1.000000000000000    
_SVDDELF_ABS= -1.000000000000000    
_SVDDELS_ABS= -1.000000000000000    
_MAXBASIS=  0.000000000000000    
!OPT_CONICAL=  0.000000000000000    
!CLEARSP_JGRID=  0.000000000000000    
_GRDHYBR=  0.000000000000000    
_STATEGRAD=  1.000000000000000    
_4EXT_NDISKS=  1.000000000000000    
!EMBEDFLAG=  1.000000000000000    
!EMBED=FALSE
!EMBED_F12=FALSE
!EMBEDNUC=  0.000000000000000    
_EMBEDENERGY=  0.000000000000000    
!EMBED_DFC=FALSE
!NUM_VOIDS=  0.000000000000000    
_IBODY=  0.000000000000000    
_EMBE_CORR=  0.000000000000000    
!EMBED_PROJ=FALSE
!EMB_PROJ_ZMU=  1000000.000000000    
!CORRECTION_HF=  0.000000000000000    
!EMBED_AORB=  0.000000000000000    
!EMBED_NACORR=  0.000000000000000    
!EMBED_MP2=FALSE
!EMBED_TRUNC_PERTURBATION=FALSE
!EMBED_FROZEN=  0.000000000000000    
!EMBED_ACTIVE=  0.000000000000000    
_CHANGE_BASIS=FALSE
_RESTORE_BASIS=FALSE
_FIX_EMBED_GUESS=FALSE
_EMBED_SCF=FALSE
_HUZINAGA_T=FALSE
_HUZINAGA_F=FALSE
_HUZINAGA=FALSE
_HUZINAGA_CORRECT=FALSE
!FASTLATGRAD=  1.000000000000000    
!FASTVLAMBDA= -1.000000000000000    
!IFORCE= -1.000000000000000    
!USESYM= -1.000000000000000    
_SINDEX=  0.000000000000000    
_AVDOM_OSV=  0.000000000000000    
_AVDOM_PNO=  0.000000000000000    
_AVDOM_PAO=  0.000000000000000    
_AVDOM_LMO=  0.000000000000000    
_CC2OSV_FLAG=  0.000000000000000    
_EOMCCSD_CONV=FALSE
_TMADC2_FLAG=FALSE
_PROPADC2_FLAG=FALSE
_LEN_VirQ=  0.000000000000000    
_GRDCC2LR_FLAG=FALSE
_GRDADC2_FLAG=FALSE
_RO_VGLOBAL=  0.000000000000000    
_OPT=FALSE
_FREQ=FALSE
_HESS=FALSE
_CMRCC_callName=EMPTY
_CMRCC_callCount=  0.000000000000000    
_GECCO_CIROOT=  1.000000000000000    
_SYM_CATION=  1.000000000000000    
_MON_A=FALSE
_MON_B=FALSE
GX1=-0.1403513013221087    
GY1=-0.5485819447410242E-01
GZ1= -2.034618834907265    
GX2= 0.2954750669660818    
GY2=-0.1258978193428745    
GZ2= -1.198830870194755    
GX3= 0.5219029369275671E-01
GY3= 0.8139483082755075    
GZ3= -2.339022777636654    
GX4=-0.5904393907820226    
GY4= 0.1730150048065629E-02
GZ4=  1.442910754385378    
GX5=-0.5918985956791517    
GY5= 0.6401695340255462    
GZ5=  2.322304666610177    
GX6=-0.8658319887036774    
GY6= -1.008403418364964    
GZ6=  1.733407075863753    
GX7= -1.325244161513573    
GY7= 0.3692247348664779    
GZ7= 0.7408184314436956    
GX8= 0.6537304223343530    
GY8= 0.3153249671524155E-01
GZ8= 0.7883305721959949    
GX9=  1.317873176485365    
GY9=-0.3394462849974658    
GZ9=  1.340325824022773    
OX1=-0.2652255207336122    
OY1=-0.1036669632475124    
OZ1= -3.844872365979906    
HX2= 0.5583669532213537    
HY2=-0.2379123982456456    
HZ2= -2.265462014414874    
HX3= 0.9862536144309392E-01
HY3=  1.538139382243176    
HZ3= -4.420112448994718    
CX4= -1.115768741768912    
CY4= 0.3269509745352151E-02
CZ4=  2.726706148065526    
HX5= -1.118526239384199    
HY5=  1.209745092637581    
HZ5=  4.388519797833591    
HX6= -1.636185328590024    
HY6= -1.905606283846203    
HZ6=  3.275664635870899    
HX7= -2.504348513519972    
HY7= 0.6977336273352068    
HZ7=  1.399943943503437    
OX8=  1.235371457547865    
OY8= 0.5958778281746824E-01
OZ8=  1.489728877119953    
HX9=  2.490419370547942    
HY9=-0.6414605126668758    
HZ9=  2.532848725166396    
[Atoms] Angs
O     1    8        -0.1403513013       -0.0548581945       -2.0346188349
H     2    1         0.2954750670       -0.1258978193       -1.1988308702
H     3    1         0.0521902937        0.8139483083       -2.3390227776
C     4    6        -0.5904393908        0.0017301500        1.4429107544
H     5    1        -0.5918985957        0.6401695340        2.3223046666
H     6    1        -0.8658319887       -1.0084034184        1.7334070759
H     7    1        -1.3252441615        0.3692247349        0.7408184314
O     8    8         0.6537304223        0.0315324967        0.7883305722
H     9    1         1.3178731765       -0.3394462850        1.3403258240
[GTO]
   1 0
 s    6  1.00
  0.8588500000D+04  0.1895150083D-02
  0.1297230000D+04  0.1438590063D-01
  0.2992960000D+03  0.7073200310D-01
  0.8737710000D+02  0.2400010105D+00
  0.2567890000D+02  0.5947970261D+00
  0.3740040000D+01  0.2808020123D+00
 s    3  1.00
  0.4211750000D+02  0.1138890124D+00
  0.9628370000D+01  0.9208111006D+00
  0.2853320000D+01 -0.3274470358D-02
 s    1  1.00
  0.9056610000D+00  0.1000000000D+01
 s    1  1.00
  0.2556110000D+00  0.1000000000D+01
 p    3  1.00
  0.4211750000D+02  0.3651139738D-01
  0.9628370000D+01  0.2371529830D+00
  0.2853320000D+01  0.8197019412D+00
 p    1  1.00
  0.9056610000D+00  0.1000000000D+01
 p    1  1.00
  0.2556110000D+00  0.1000000000D+01
 d    1  1.00
  0.1292000000D+01  0.1000000000D+01
  
   2 0
 s    3  1.00
  0.3386500000D+02  0.2549381454D-01
  0.5094790000D+01  0.1903731086D+00
  0.1158790000D+01  0.8521614860D+00
 s    1  1.00
  0.3258400000D+00  0.1000000000D+01
 s    1  1.00
  0.1027410000D+00  0.1000000000D+01
 p    1  1.00
  0.7500000000D+00  0.1000000000D+01
  
   3 0
 s    3  1.00
  0.3386500000D+02  0.2549381454D-01
  0.5094790000D+01  0.1903731086D+00
  0.1158790000D+01  0.8521614860D+00
 s    1  1.00
  0.3258400000D+00  0.1000000000D+01
 s    1  1.00
  0.1027410000D+00  0.1000000000D+01
 p    1  1.00
  0.7500000000D+00  0.1000000000D+01
  
   4 0
 s    6  1.00
  0.4563240000D+04  0.1966650249D-02
  0.6820240000D+03  0.1523060193D-01
  0.1549730000D+03  0.7612690966D-01
  0.4445530000D+02  0.2608010331D+00
  0.1302900000D+02  0.6164620782D+00
  0.1827730000D+01  0.2210060280D+00
 s    3  1.00
  0.2096420000D+02  0.1146600807D+00
  0.4803310000D+01  0.9199996477D+00
  0.1459330000D+01 -0.3030682134D-02
 s    1  1.00
  0.4834560000D+00  0.1000000000D+01
 s    1  1.00
  0.1455850000D+00  0.1000000000D+01
 p    3  1.00
  0.2096420000D+02  0.4024869267D-01
  0.4803310000D+01  0.2375939567D+00
  0.1459330000D+01  0.8158538515D+00
 p    1  1.00
  0.4834560000D+00  0.1000000000D+01
 p    1  1.00
  0.1455850000D+00  0.1000000000D+01
 d    1  1.00
  0.6260000000D+00  0.1000000000D+01
  
   5 0
 s    3  1.00
  0.3386500000D+02  0.2549381454D-01
  0.5094790000D+01  0.1903731086D+00
  0.1158790000D+01  0.8521614860D+00
 s    1  1.00
  0.3258400000D+00  0.1000000000D+01
 s    1  1.00
  0.1027410000D+00  0.1000000000D+01
 p    1  1.00
  0.7500000000D+00  0.1000000000D+01
  
   6 0
 s    3  1.00
  0.3386500000D+02  0.2549381454D-01
  0.5094790000D+01  0.1903731086D+00
  0.1158790000D+01  0.8521614860D+00
 s    1  1.00
  0.3258400000D+00  0.1000000000D+01
 s    1  1.00
  0.1027410000D+00  0.1000000000D+01
 p    1  1.00
  0.7500000000D+00  0.1000000000D+01
  
   7 0
 s    3  1.00
  0.3386500000D+02  0.2549381454D-01
  0.5094790000D+01  0.1903731086D+00
  0.1158790000D+01  0.8521614860D+00
 s    1  1.00
  0.3258400000D+00  0.1000000000D+01
 s    1  1.00
  0.1027410000D+00  0.1000000000D+01
 p    1  1.00
  0.7500000000D+00  0.1000000000D+01
  
   8 0
 s    6  1.00
  0.8588500000D+04  0.1895150083D-02
  0.1297230000D+04  0.1438590063D-01
  0.2992960000D+03  0.7073200310D-01
  0.8737710000D+02  0.2400010105D+00
  0.2567890000D+02  0.5947970261D+00
  0.3740040000D+01  0.2808020123D+00
 s    3  1.00
  0.4211750000D+02  0.1138890124D+00
  0.9628370000D+01  0.9208111006D+00
  0.2853320000D+01 -0.3274470358D-02
 s    1  1.00
  0.9056610000D+00  0.1000000000D+01
 s    1  1.00
  0.2556110000D+00  0.1000000000D+01
 p    3  1.00
  0.4211750000D+02  0.3651139738D-01
  0.9628370000D+01  0.2371529830D+00
  0.2853320000D+01  0.8197019412D+00
 p    1  1.00
  0.9056610000D+00  0.1000000000D+01
 p    1  1.00
  0.2556110000D+00  0.1000000000D+01
 d    1  1.00
  0.1292000000D+01  0.1000000000D+01
  
   9 0
 s    3  1.00
  0.3386500000D+02  0.2549381454D-01
  0.5094790000D+01  0.1903731086D+00
  0.1158790000D+01  0.8521614860D+00
 s    1  1.00
  0.3258400000D+00  0.1000000000D+01
 s    1  1.00
  0.1027410000D+00  0.1000000000D+01
 p    1  1.00
  0.7500000000D+00  0.1000000000D+01


[MO]
 Sym=      1.1
 Ene=     -20.5645
 Spin= Alpha
 Occup=    2.000000
1 -0.000023506860193
2 -0.000026319964845
3 0.000051863107746
4 -0.000178436787334
5 -0.000003950173665
6 0.000006751042620
7 -0.000006432903120
8 0.000013815157411
9 -0.000025146335721
10 0.000025259301509
11 -0.000047220697236
12 0.000016353719862
13 -0.000094408551890
14 0.000006297209713
15 -0.000004139293332
16 -0.000002157916381
17 -0.000004840294291
18 0.000002687969156
19 -0.000000713603848
20 -0.000034589092479
21 0.000154455650461
22 0.000131178252080
23 0.000000646970789
24 0.000011132780081
25 0.000045106754315
26 0.000005923336275
27 0.000024967053190
28 -0.000043170373518
29 0.000000114958016
30 -0.000011914114006
31 0.000009622502246
32 -0.000002744476945
33 -0.000030252599854
34 0.000086295128267
35 0.000511046120625
36 0.000022537678230
37 0.000007308192206
38 -0.000020423687444
39 0.000231897114049
40 -0.000015005065985
41 -0.000085927214025
42 0.000092948739556
43 0.000071106589487
44 -0.000187793298167
45 0.000088364303844
46 -0.000052714177442
47 -0.000035650126402
48 -0.000005265880461
49 -0.000081444204873
50 0.000016115871540
51 0.000011123686631
52 -0.000073291073755
53 -0.000001623076345
54 -0.000017072980195
55 -0.000015446018999
56 0.000018542831770
57 0.000006775256043
58 -0.000046558385279
59 -0.000000659398675
60 -0.000014597428380
61 0.000009756570509
62 0.000023493939867
63 0.000022276912922
64 -0.000106295310442
65 -0.000083238391002
66 0.000008508193138
67 -0.000005555745486
68 0.000010447516831
69 0.55143729116832
70 0.47165968330017
71 0.005679658766094
72 -0.000773386913076
73 -0.000232283036813
74 -0.000641518341892
75 0.001510799520183
76 0.000075879949000
77 0.000230262231623
78 -0.000588863175886
79 0.000227065607345
80 -0.000065416462723
81 0.000153605205248
82 -0.000125385739611
83 0.000115698973923
84 0.000009686765688
85 0.000040764911804
86 0.000051765826726
87 0.000048332842969
88 0.000203391184363
89 0.000022970054323
90 0.000054072057758
91 -0.000069079925820
92 0.000002709891665
93 -0.000002100029473
 Sym=      2.1
 Ene=     -20.5119
 Spin= Alpha
 Occup=    2.000000
1 0.55142749349932
2 0.47167180760891
3 0.005609335725428
4 -0.000557348299939
5 0.000927019915874
6 0.001236804273871
7 0.000739191458829
8 -0.000309969713940
9 -0.000439850327523
10 -0.000232847767594
11 0.000019678613255
12 0.000080931774046
13 -0.000017548271405
14 0.000066131059006
15 -0.000043189748651
16 -0.000022941310355
17 -0.000032900607455
18 -0.000055029211739
19 0.000069432061998
20 0.000198043032806
21 0.000104212079682
22 0.000230453004569
23 -0.000020841631904
24 0.000036794287904
25 -0.000052398540223
26 0.000209129163418
27 0.000101422245065
28 0.000048972348478
29 0.000004648839277
30 -0.000058325247505
31 0.000050061409571
32 0.000000058534184
33 -0.000000222917093
34 0.000005807573281
35 -0.000078300704586
36 0.000003170451334
37 -0.000001430830452
38 0.000003980631129
39 -0.000014445235990
40 0.000005950806667
41 -0.000016202543463
42 -0.000019330687367
43 -0.000004841928099
44 0.000022738378961
45 -0.000004791320926
46 -0.000000255895402
47 0.000005047216329
48 -0.000001875236758
49 -0.000000833397492
50 -0.000003177693954
51 0.000000292385408
52 0.000012803975605
53 0.000001898940752
54 0.000002027163282
55 -0.000001848716379
56 -0.000003698702505
57 -0.000002507350340
58 0.000020289039118
59 -0.000009001022750
60 0.000003132276750
61 0.000002709091494
62 -0.000001783623121
63 0.000001689270533
64 -0.000008257013066
65 0.000014562142390
66 -0.000003843913385
67 0.000001647764103
68 0.000002019513523
69 0.000024153627572
70 0.000019745397035
71 0.000006957918124
72 -0.000007411005168
73 -0.000000856030863
74 -0.000000499244375
75 0.000009172260736
76 0.000002705790276
77 0.000003190033206
78 -0.000027932843558
79 -0.000023252824625
80 -0.000000397322306
81 0.000096212884301
82 0.000000479971458
83 0.000000427675940
84 -0.000000907647398
85 0.000001516876337
86 -0.000003344749562
87 -0.000001402999526
88 -0.000006874337193
89 0.000014807302562
90 -0.000030208288240
91 0.000004246386432
92 -0.000001419409056
93 -0.000012858640945
 Sym=      3.1
 Ene=     -11.2767
 Spin= Alpha
 Occup=    2.000000
1 0.000000063907709
2 0.000000378209947
3 0.000000013286149
4 -0.000027029066944
5 0.000002822212648
6 -0.000000230306132
7 -0.000000080392526
8 -0.000009321411567
9 -0.000000241142826
10 -0.000002915100531
11 0.000007183539001
12 -0.000010222124807
13 -0.000018100526958
14 0.000001654117249
15 0.000001011604918
16 -0.000002665722167
17 0.000000005027759
18 -0.000002866099033
19 0.000000837830663
20 0.000002407320948
21 0.000013378568664
22 -0.000008455770337
23 -0.000005637454182
24 0.000001216937859
25 -0.000016167024848
26 -0.000003255506337
27 0.000025426668691
28 -0.000019801499305
29 -0.000001341434268
30 -0.000002141645427
31 0.000003148280101
32 0.56343353144980
33 0.46655616447407
34 0.004173027948277
35 -0.001285916674057
36 0.000984224364732
37 -0.000015482351669
38 -0.000401586079467
39 -0.000779590834352
40 0.000012522534239
41 0.000303244912556
42 0.000149292880305
43 -0.000017061288286
44 -0.000025345490077
45 -0.000201966441301
46 0.000135494440779
47 0.000066472000522
48 -0.000022036214626
49 0.000241473665626
50 -0.000017266607415
51 0.000349522278099
52 0.000072847612336
53 0.000259636994106
54 0.000040366469194
55 0.000016570749286
56 0.000003574132486
57 0.000349490512406
58 0.000063601989703
59 0.000261473794682
60 0.000033170875998
61 -0.000029514042956
62 -0.000009083098555
63 0.000345778693936
64 0.000015464937439
65 0.000323867707196
66 0.000001543226906
67 0.000021627780819
68 -0.000055118285185
69 -0.000071670170865
70 -0.000129766994944
71 0.000301057370642
72 0.000377626958499
73 -0.000087838501438
74 -0.000006238012396
75 0.000054120325880
76 -0.000509608258807
77 -0.000004597998138
78 0.000255105869049
79 -0.000143891442064
80 -0.000008018520333
81 0.000078363031198
82 0.000138534554354
83 -0.000109923260051
84 -0.000028611294303
85 0.000021863489492
86 -0.000184194202972
87 -0.000001533055976
88 -0.000010544291801
89 0.000025059676162
90 -0.000029462550989
91 -0.000034598630742
92 0.000020428260965
93 -0.000029722476804
 Sym=      4.1
 Ene=      -1.3820
 Spin= Alpha
 Occup=    2.000000
1 -0.006910237541986
2 -0.011497730304516
3 0.032091503220269
4 0.023237433819083
5 0.001560791422145
6 0.001377587973219
7 0.002258672851570
8 0.002372847529742
9 0.002525496251003
10 0.003048255184570
11 0.001146863064533
12 0.001053391320893
13 0.002856781123186
14 -0.000403598260720
15 0.000069751234820
16 0.000333847025900
17 0.000235010453080
18 0.000393005967342
19 -0.000143301535010
20 0.009105908896118
21 0.005397990049429
22 0.001218029801802
23 -0.000734661240948
24 0.000209281629330
25 -0.001856078243982
26 0.005460473727180
27 0.003623268806615
28 0.000459341197191
29 -0.000215131390881
30 -0.001308091220204
31 0.000507166546399
32 -0.036448902820444
33 -0.059502467964298
34 0.14785070619880
35 -0.000369323668044
36 0.035845485690335
37 0.000049830259710
38 -0.017324491422600
39 0.071700504847949
40 -0.000285572446594
41 -0.032696986424997
42 -0.002131859554421
43 -0.001265529284965
44 0.007216039127304
45 0.020534549156499
46 -0.014039230794091
47 -0.006495318362408
48 -0.000223836806142
49 -0.018058047179680
50 -0.000062579681028
51 0.014390146455095
52 0.028369947000642
53 -0.000941785459823
54 0.000891974421106
55 -0.004466854269003
56 -0.006967404984011
57 0.014474293274242
58 0.029343041163436
59 -0.000662452842711
60 0.002902034861676
61 0.007429099885004
62 -0.002869850995453
63 0.014489219046096
64 0.031750046537980
65 0.000727562122354
66 0.006196242151768
67 -0.002813332360032
68 0.004951216297290
69 -0.10980085777604
70 -0.18339656933146
71 0.51925796682140
72 0.39335404623660
73 -0.005923911294852
74 -0.012474068268724
75 0.030319388952515
76 -0.012707381601445
77 -0.021174676417425
78 0.053045067944662
79 -0.020650952227437
80 -0.007392883431882
81 0.020169114024875
82 0.005384827539405
83 -0.006095929669459
84 0.000711102130054
85 -0.002887117797687
86 -0.000439514885685
87 -0.003938254981927
88 0.091074268365690
89 0.075614427550595
90 -0.001560439396767
91 -0.020712281011918
92 0.010232806022878
93 -0.013357452312938
 Sym=      5.1
 Ene=      -1.3201
 Spin= Alpha
 Occup=    2.000000
1 -0.11316464349666
2 -0.18898163810272
3 0.53550580342280
4 0.37891178359142
5 0.020487559027704
6 0.026614868610095
7 0.017062577898138
8 0.033867924430637
9 0.044723371478872
10 0.028134768738540
11 0.011848364950108
12 0.013464515538346
13 0.011205517369510
14 -0.004671909567885
15 0.002681847254278
16 0.001990062313607
17 0.003310222218783
18 0.005090029875345
19 -0.003588402056552
20 0.093796807429208
21 0.075685746772563
22 -0.009138891507959
23 -0.011713175012483
24 0.004393068156277
25 -0.024930437734832
26 0.097059473861770
27 0.081337262552789
28 0.000274369374095
29 -0.004217887783242
30 -0.024772671365657
31 0.011071753909264
32 0.002712819206129
33 0.004443855173405
34 -0.011240592156148
35 0.000228780002265
36 -0.002900758996351
37 0.000038981421447
38 0.000894100251801
39 -0.005336979991350
40 -0.000060844112722
41 0.002070090020610
42 0.002224013713434
43 -0.000769874839742
44 -0.001494269094711
45 -0.001427399556805
46 0.000938788679202
47 0.000488610877603
48 0.000056366988754
49 0.001160428782822
50 0.000020304852363
51 -0.001320370801017
52 -0.001834276615835
53 -0.000357517687441
54 -0.000165274140860
55 0.000344245231730
56 0.000522539944841
57 -0.001071254463423
58 -0.003006087734913
59 0.000166539557580
60 -0.000365932302612
61 -0.000565251867173
62 0.000315989592189
63 -0.000823454022129
64 -0.001444221663683
65 0.003479434069808
66 -0.000043866553843
67 0.000057924646334
68 -0.000627140068263
69 0.007455650143226
70 0.012475662523306
71 -0.035463677768270
72 -0.027277274388179
73 0.000015268769052
74 0.000890687353393
75 -0.004622051340675
76 0.000214621503480
77 0.001497452793200
78 -0.006306187619546
79 0.002119326497029
80 0.000573215285600
81 -0.007056150017030
82 -0.000394805886415
83 0.000480480708710
84 -0.000085674822295
85 0.000201396595453
86 0.000155950242862
87 0.000351503099055
88 -0.007104279559313
89 -0.006957798739503
90 0.001486716000107
91 0.001546675060353
92 -0.000773633476220
93 0.001290486320940
 Sym=      6.1
 Ene=      -0.9411
 Spin= Alpha
 Occup=    2.000000
1 -0.000143369618205
2 -0.000220359460205
3 0.000133047803972
4 0.004834932598291
5 -0.000999983922320
6 0.000201280502381
7 -0.000074124159911
8 -0.001316002554612
9 0.000571524653256
10 -0.000079628939695
11 -0.000792699351352
12 0.000047797368065
13 0.001838075119439
14 -0.000119640130943
15 0.000035885765038
16 0.000083754365905
17 -0.000015139234623
18 -0.000084384320159
19 -0.000020607142228
20 -0.001089737585329
21 -0.003648460971710
22 -0.004627665260967
23 -0.000162467168145
24 -0.000043705480258
25 0.000207170079547
26 0.000184050037837
27 -0.000515284564920
28 0.001449652283549
29 -0.000061290723759
30 0.000142637438883
31 -0.000143613632821
32 -0.094631911706743
33 -0.15719574394734
34 0.40843013371768
35 0.24152788373596
36 -0.025698362025688
37 0.002365752097254
38 0.006020700975402
39 -0.021528555294812
40 0.003905974170857
41 0.000084808060076
42 -0.017118712417064
43 -0.002092254342219
44 0.012946700642039
45 -0.001435518671835
46 -0.000730059733718
47 0.002165578405553
48 0.000297410226877
49 -0.000408789665288
50 -0.001344265652193
51 0.081904033376614
52 0.11407480626515
53 0.003051412452530
54 -0.001601366076693
55 -0.011644162504745
56 -0.016005450056089
57 0.081677429418817
58 0.11325873067142
59 0.002706561636617
60 0.003605989564797
61 0.018791381900901
62 -0.004988281146922
63 0.086082948578867
64 0.12152830581983
65 0.005915985350542
66 0.012433821538097
67 -0.006964893439393
68 0.014790004382489
69 0.030126485437649
70 0.050641893575472
71 -0.14614855480257
72 -0.14090924590749
73 -0.093218616568887
74 0.015490078445825
75 0.008246198912396
76 -0.14857914884536
77 0.024960249271183
78 0.013170327491734
79 -0.080129359211754
80 0.009969605870867
81 0.014975040048585
82 0.004044382309426
83 -0.002768626553956
84 -0.001275755755470
85 0.004656495043343
86 -0.013136307961206
87 0.002653051299400
88 -0.076751354487062
89 -0.088415088214484
90 -0.012291834661297
91 0.008734418303371
92 -0.007163921430409
93 0.012626824437641
 Sym=      7.1
 Ene=      -0.7192
 Spin= Alpha
 Occup=    2.000000
1 -0.003744280474222
2 -0.006349093571934
3 0.019024639304750
4 0.020318923035722
5 -0.015604098995919
6 0.046129634568024
7 -0.071628609367791
8 -0.023495879418490
9 0.071294802535718
10 -0.10912530360467
11 -0.015252076173579
12 0.038450446309794
13 -0.071125214413485
14 -0.001222584603124
15 0.008256673722757
16 -0.007034089119633
17 0.002158128719296
18 -0.005651845482541
19 -0.003232301927383
20 -0.063334682339231
21 -0.082089659332485
22 -0.027696093589970
23 0.006737594141770
24 0.001154307456923
25 0.009477750683141
26 0.055810440883863
27 0.078195691847605
28 0.018830730284727
29 -0.004360553545847
30 -0.011442224905599
31 -0.000058921545852
32 -0.013710843962896
33 -0.022470260731230
34 0.055563245293925
35 0.065027075689540
36 -0.030239092715993
37 -0.028252808606406
38 0.094213483125167
39 -0.051854026961310
40 -0.047271155039075
41 0.15721559442687
42 -0.007646260781984
43 -0.027589213409659
44 0.081327056265449
45 -0.011074533593262