
 Working directory              : /tmp/zwa/molpro.HXajNqMnnc/
 Global scratch directory       : /tmp/zwa/molpro.HXajNqMnnc/
 Wavefunction directory         : /home/zwa/wfu/
 Main file repository           : /tmp/zwa/molpro.HXajNqMnnc/

 id        : liedlgroup

 Nodes     nprocs
 rh2-c724     6
 GA implementation: MPI file
 GA implementation (serial work in mppx): MPI file

 Using customized tuning parameters: mindgm=1; mindgv=20; mindgc=4; mindgr=1; noblas=0; minvec=7
 default implementation of scratch files=sf  


 Variables initialized (1015), CPU time= 0.00 sec
 memory,1000,m
 orient,mass
 geometry = {
  O,                 -9.56962001  ,  2.36708857  ,  0.00000000
  H,                -8.60962001   , 2.36708857   , 0.00000000
  H,                 -9.89007460  ,  3.27202440  ,  0.00000000
  C,                 -6.12658212  ,  0.72151895  , -0.00000007
  H,                 -5.90016446  ,  0.09425664  ,  0.83676575
  H,                 -5.42389322  ,  0.53597945  , -0.78530473
  H,                 -7.11548130  ,  0.50811041  , -0.34847562
  O,                 -6.04667228  ,  2.09299594  ,  0.39694485
  H,                 -5.15074797  ,  2.32445816  , -0.16162373
 }
 mass,iso
 basis=6-311g(d,p)
 {hf
 start,atden}
 
 optg
 {frequencies, symm=auto,print=0,analytical}
 put,molden,methanolwaterdonor.molden
 Commands initialized (834), CPU time= 0.01 sec, 672 directives.
 Default parameters read. Elapsed time= 0.12 sec

 Checking input...
 Passed
1


                                         ***  PROGRAM SYSTEM MOLPRO  ***
                                       Copyright, TTI GmbH Stuttgart, 2015
                                    Version 2022.2 linked Thu Sep 29 12:37:28 2022


 **********************************************************************************************************************************
 LABEL *                                                                                 
  (8 PROC) 64 bit mpp version                                                            DATE: 25-Aug-25          TIME: 15:12:39  
 **********************************************************************************************************************************

 SHA1:             51306cdc306ce2a111a2867affebcb289530e0a7
 **********************************************************************************************************************************

 Memory per process:      1000 MW
 Total memory per node:   6000 MW

 GA preallocation disabled
 GA check disabled

 Variable memory set to 1000.0 MW

 ZCENTRE=MASS


 Geometry recognized as XYZ



 Using masses of most abundant isotopes

 **********************************************************************************************************************************
 SETTING BASIS          =    6-311G(D,P)


 Recomputing integrals since basis changed


 Using spherical harmonics

 Library entry O      S 6-311G               selected for orbital group  1
 Library entry O      P 6-311G               selected for orbital group  1
 Library entry O      D 6-311G*              selected for orbital group  1
 Library entry H      S 6-311G               selected for orbital group  2
 Library entry H      P 6-311G**             selected for orbital group  2
 Library entry C      S 6-311G               selected for orbital group  3
 Library entry C      P 6-311G               selected for orbital group  3
 Library entry C      D 6-311G*              selected for orbital group  3


 PROGRAM * SEWARD (Integral evaluation for generally contracted gaussian basis sets)     Author: Roland Lindh, 1990

 Geometry written to block  1 of record 700

 Orientation using atomic masses  
 Molecule type: Asymmetric top
 Rotational constants:       3.2223598      2.9132726     24.4029165 GHz

 Point group  C1  



 ATOMIC COORDINATES

 NR  ATOM    CHARGE       X              Y              Z

   1  O       8.00   -0.194574325    0.012475618   -4.413938411
   2  H       1.00    0.301692288   -0.188519496   -2.680613930
   3  H       1.00    1.230590717   -0.300121903   -5.492029659
   4  C       6.00   -1.307526717   -0.017948409    2.710927829
   5  H       1.00   -1.906549487    1.729635361    3.532897906
   6  H       1.00   -1.633286537   -1.524819441    4.019259733
   7  H       1.00   -2.354902192   -0.359288803    1.015344308
   8  O       8.00    1.328160725    0.116536261    2.129949345
   9  H       1.00    1.940118159   -1.190688692    3.575141976

 Bond lengths in Bohr (Angstrom)

 1-2  1.814137080  1-3  1.814137080  4-5  2.022006953  4-6  2.022006958  4-7  2.022006955
     ( 0.960000000)     ( 0.960000000)     ( 1.070000000)     ( 1.070000002)     ( 1.070000001)

 4-8  2.702308349  8-9  2.042525574
     ( 1.429999995)     ( 1.080857987)

 Bond angles

  2-1-3  109.50000032   4-8-9   96.21456499   5-4-6  109.47120215   5-4-7  109.47123126

  5-4-8  109.47120287   6-4-7  109.47121826   6-4-8  109.47125082   7-4-8  109.47121843

 NUCLEAR CHARGE:                   28
 NUMBER OF PRIMITIVE AOS:         144
 NUMBER OF SYMMETRY AOS:          141
 NUMBER OF CONTRACTIONS:           90   (   90A   )
 NUMBER OF INNER CORE ORBITALS:     0   (    0A   )
 NUMBER OF OUTER CORE ORBITALS:     3   (    3A   )
 NUMBER OF VALENCE ORBITALS:       18   (   18A   )


 NUCLEAR REPULSION ENERGY   75.13158292


 Eigenvalues of metric

         1 0.853E-02 0.175E-01 0.201E-01 0.207E-01 0.249E-01 0.329E-01 0.395E-01 0.428E-01


 Contracted 2-electron integrals neglected if value below      1.0D-11
 AO integral compression algorithm  1   Integral accuracy      1.0D-11

     25.952 MB (compressed) written to integral file ( 34.6%)

     Node minimum: 3.408 MB, node maximum: 4.719 MB


 NUMBER OF SORTED TWO-ELECTRON INTEGRALS:    1397418.     BUFFER LENGTH:  32768
 NUMBER OF SEGMENTS:   1  SEGMENT LENGTH:    1397418      RECORD LENGTH: 524288

 Memory used in sort:       1.95 MW

 SORT1 READ     9356591. AND WROTE      906649. INTEGRALS IN      3 RECORDS. CPU TIME:     0.11 SEC, REAL TIME:     0.14 SEC
 SORT2 READ     5382994. AND WROTE     8386560. INTEGRALS IN     78 RECORDS. CPU TIME:     0.04 SEC, REAL TIME:     0.04 SEC

 Node minimum:     1396054.  Node maximum:     1399467. integrals

 OPERATOR DM      FOR CENTER  0  COORDINATES:    0.000000    0.000000    0.000000


 **********************************************************************************************************************************
 DATASETS  * FILE   NREC   LENGTH (MB)   RECORD NAMES
              1      18       29.00       500      610      700      900      950      970     1000      129      960     1100   
                                          VAR    BASINP    GEOM    SYMINP    ZMAT    AOBASIS   BASIS     P2S    ABASIS      S 
                                         1400     1410     1200     1210     1080     1600     1650     1700   
                                           T        V       H0       H01     AOSYM     SMH    MOLCAS    OPER   

 PROGRAMS   *        TOTAL       INT
 CPU TIMES  *         0.90      0.71
 REAL TIME  *         1.18 SEC
 DISK USED  *        29.40 MB (local),      268.25 MB (total)
 GA USED    *         0.00 MB       (max)       0.00 MB       (current)
 **********************************************************************************************************************************


 Program * Restricted Hartree-Fock

 Orbital guess generated from atomic densities.

 Initial occupancy:  14

 NELEC=   28   SYM=1   MS2= 0   THRE=1.0D-08   THRD=1.0D-06   THRG=1.0D-06  HFMA2=F  DIIS_START=2   DIIS_MAX=10   DIIS_INCORE=F

 Level shifts:    0.00 (CLOSED)    0.00 (OPEN)    0.30 (GAP_MIN)

 ITER           ETOT              DE          GRAD        DDIFF     DIIS  NEXP   TIME(IT)  TIME(TOT)  DIAG
   1     -191.02398415    -191.02398415     0.00D+00     0.48D-01     0     0       0.09      0.20    start
   2     -191.08335565      -0.05937150     0.90D-02     0.65D-02     1     0       0.21      0.41    diag
   3     -191.10027348      -0.01691783     0.50D-02     0.23D-02     2     0       0.21      0.62    diag
   4     -191.10109340      -0.00081992     0.75D-03     0.58D-03     3     0       0.25      0.87    diag
   5     -191.10117540      -0.00008200     0.22D-03     0.23D-03     4     0       0.21      1.08    diag
   6     -191.10118433      -0.00000892     0.85D-04     0.59D-04     5     0       0.20      1.28    diag
   7     -191.10118550      -0.00000117     0.23D-04     0.25D-04     6     0       0.21      1.49    diag
   8     -191.10118557      -0.00000007     0.49D-05     0.69D-05     7     0       0.24      1.73    fixocc
   9     -191.10118558      -0.00000000     0.10D-05     0.13D-05     8     0       0.20      1.93    diag
  10     -191.10118558      -0.00000000     0.27D-06     0.35D-06     9     0       0.25      2.18    diag/orth
  11     -191.10118558      -0.00000000     0.79D-07     0.66D-07     0     0       0.19      2.37    diag

 Final occupancy:  14

 !RHF STATE 1.1 Energy               -191.101185577602
  RHF One-electron energy            -411.330390319191
  RHF Two-electron energy             145.097621823184
  RHF Kinetic energy                  190.974792098042
  RHF Nuclear energy                   75.131582918405
  RHF Virial quotient                  -1.000661833314

 !RHF STATE 1.1 Dipole moment           0.30696275    -0.66083152     0.94967761
 Dipole moment /Debye                   0.78022148    -1.67966618     2.41383972

 Orbital energies:

           1.1          2.1          3.1          4.1          5.1          6.1          7.1          8.1          9.1         10.1
    -20.569737   -20.527756   -11.270113    -1.344793    -1.321676    -0.927245    -0.702235    -0.680831    -0.630887    -0.590071

          11.1         12.1         13.1         14.1         15.1         16.1
     -0.548002    -0.512568    -0.483795    -0.457872     0.124598     0.169457


 HOMO     14.1    -0.457872 =     -12.4593eV
 LUMO     15.1     0.124598 =       3.3905eV
 LUMO-HOMO         0.582470 =      15.8498eV

 Orbitals saved in record  2100.2


 **********************************************************************************************************************************
 DATASETS  * FILE   NREC   LENGTH (MB)   RECORD NAMES
              1      18       29.00       500      610      700      900      950      970     1000      129      960     1100   
                                          VAR    BASINP    GEOM    SYMINP    ZMAT    AOBASIS   BASIS     P2S    ABASIS      S 
                                         1400     1410     1200     1210     1080     1600     1650     1700   
                                           T        V       H0       H01     AOSYM     SMH    MOLCAS    OPER   

              2       4        0.61       700     1000      520     2100   
                                         GEOM     BASIS   MCVARS     RHF  

 PROGRAMS   *        TOTAL    HF-SCF       INT
 CPU TIMES  *         3.30      2.40      0.71
 REAL TIME  *         2.16 SEC
 DISK USED  *        30.22 MB (local),      273.16 MB (total)
 GA USED    *         0.00 MB       (max)       0.00 MB       (current)
 **********************************************************************************************************************************


 PROGRAM * OPT (Geometry optimization)     Authors: F. Eckert and H.-J. Werner


 BFGS update of hessian

 *** Long output written to logfile /home/zwa/Overlap_Integral_Project/overlap_integral_gaussian/molpro_files/methanolwaterdimer/methanolwaterdonor.log ***


 Geometry optimization using default procedure for command HF-SCF

 Geometry written to block  1 of record 700

 Making model hessian for cartesian coordinates

 Entering Rational Function Geometry Optimization

 ITER.   ENERGY(OLD)    ENERGY(NEW)      DE          GRADMAX     GRADNORM    GRADRMS     STEPMAX     STEPLEN     STEPRMS   CPU-time
   1  -191.10118558  -191.12221151    -0.02102593  0.16082866  0.16964430  0.00807830  0.22999131  0.30000000  0.10000000      4.72
   2  -191.12221151  -191.12579779    -0.00358628  0.05654560  0.07565486  0.00360261  0.14724752  0.26933600  0.08977867      9.41
   3  -191.12579779  -191.12713211    -0.00133432  0.03936486  0.04556444  0.00216974  0.23965703  0.30000000  0.10000000     14.04
   4  -191.12713211  -191.12799980    -0.00086769  0.01728493  0.02337687  0.00111318  0.21430212  0.30000000  0.10000000     18.82
   5  -191.12799980  -191.12879745    -0.00079765  0.01240106  0.01689421  0.00080449  0.25792420  0.30000000  0.10000000     23.40
   6  -191.12879745  -191.12929091    -0.00049346  0.00738920  0.01104163  0.00052579  0.22899182  0.30000000  0.10000000     28.26
   7  -191.12929091  -191.12947890    -0.00018799  0.00899155  0.01232437  0.00058687  0.19724930  0.28510435  0.09503478     33.16
   8  -191.12947890  -191.12967351    -0.00019462  0.00653869  0.01011409  0.00048162  0.09400486  0.14469852  0.04823284     37.99
   9  -191.12967351  -191.12991527    -0.00024176  0.00712695  0.01002808  0.00047753  0.20275581  0.30000000  0.10000000     42.57
  10  -191.12991527  -191.13036433    -0.00044906  0.01536343  0.01902127  0.00090577  0.19740768  0.29026707  0.09675569     47.73
  11  -191.13036433  -191.13068920    -0.00032487  0.01125828  0.01647861  0.00078470  0.14395212  0.30000000  0.10000000     52.71
  12  -191.13068920  -191.13094929    -0.00026009  0.01038344  0.01525985  0.00072666  0.10586410  0.13109854  0.04369951     57.76
  13  -191.13094929  -191.13068147     0.00026781  0.00323411  0.00450720  0.00021463  0.21295082  0.30000000  0.10000000     62.76
  14  -191.13068147  -191.13105275    -0.00037127  0.02203892  0.03039088  0.00144718  0.10126199  0.12026992  0.04008997     67.60
  15  -191.13105275  -191.13112103    -0.00006828  0.00472500  0.00637733  0.00030368  0.08072436  0.10600463  0.03533488     72.38
  16  -191.13112103  -191.13114773    -0.00002670  0.00123603  0.00220663  0.00010508  0.08390506  0.13471292  0.04490431     77.16
  17  -191.13114773  -191.13121075    -0.00006302  0.00876657  0.00946770  0.00045084  0.03806360  0.06606679  0.02202226     81.88
  18  -191.13121075  -191.13127167    -0.00006092  0.00444295  0.00494365  0.00023541  0.14902751  0.16232768  0.05410923     86.88
  19  -191.13127167  -191.13136800    -0.00009633  0.00868013  0.01229156  0.00058531  0.05421476  0.07477889  0.02492630     91.78
  20  -191.13136800  -191.13133642     0.00003158  0.00446435  0.00546284  0.00026014  0.18473285  0.21043666  0.07014555     96.60
  21  -191.13133642  -191.13142017    -0.00008376  0.01444238  0.01993078  0.00094908  0.12048545  0.17541545  0.05847182    101.34
  22  -191.13142017  -191.13151671    -0.00009654  0.00864872  0.00958246  0.00045631  0.09929166  0.14148148  0.04716049    106.17
  23  -191.13151671  -191.13154931    -0.00003260  0.00176001  0.00257671  0.00012270  0.10246226  0.11375611  0.03791870    111.20
  24  -191.13154931  -191.13159217    -0.00004286  0.00924449  0.01074821  0.00051182  0.05934982  0.08015750  0.02671917    115.88
  25  -191.13159217  -191.13162678    -0.00003461  0.00365615  0.00506839  0.00024135  0.06283017  0.10695241  0.03565080    120.88
  26  -191.13162678  -191.13167582    -0.00004904  0.00709286  0.00984917  0.00046901  0.03528908  0.05591121  0.01863707    125.28
  27  -191.13167582  -191.13171063    -0.00003480  0.00228285  0.00298802  0.00014229  0.05606829  0.07703830  0.02567943    129.94
  28  -191.13171063  -191.13173403    -0.00002340  0.00450856  0.00494027  0.00023525  0.07040774  0.09064997  0.03021666    134.65
  29  -191.13173403  -191.13175901    -0.00002498  0.00471377  0.00655019  0.00031191  0.07868471  0.08637913  0.02879304    139.43
  30  -191.13175901  -191.13177842    -0.00001941  0.00091800  0.00186780  0.00008894  0.10021661  0.13689827  0.04563276    144.26
  31  -191.13177842  -191.13179334    -0.00001492  0.00390230  0.00460351  0.00021921  0.01629522  0.02731946  0.00910649    148.79
  32  -191.13179334  -191.13180604    -0.00001269  0.00126042  0.00177873  0.00008470  0.05796415  0.08760981  0.02920327    154.10
  33  -191.13180604  -191.13181493    -0.00000889  0.00371068  0.00460143  0.00021912  0.01718026  0.02503645  0.00834548    158.63
  34  -191.13181493  -191.13182035    -0.00000543  0.00069265  0.00115448  0.00005498  0.03723458  0.05639923  0.01879974    163.24
  35  -191.13182035  -191.13182275    -0.00000240  0.00079155  0.00124122  0.00005911  0.02596707  0.04019592  0.01339864    167.71
  36  -191.13182275  -191.13182497    -0.00000222  0.00187993  0.00213335  0.00010159  0.00950685  0.01490577  0.00496859    172.10
  37  -191.13182497  -191.13182694    -0.00000197  0.00094476  0.00108818  0.00005182  0.01730513  0.02721928  0.00907309    176.39
  38  -191.13182694  -191.13182816    -0.00000122  0.00053223  0.00068638  0.00003268  0.02436478  0.03191416  0.01063805    181.11
  39  -191.13182816  -191.13182855    -0.00000039  0.00032141  0.00037472  0.00001784  0.01236739  0.01888012  0.00629337    185.54
  40  -191.13182855  -191.13182874    -0.00000019  0.00016459  0.00027511  0.00001310  0.01270475  0.01889753  0.00629918    189.68

 END OF GEOMETRY OPTIMIZATION.

 Geometry written to block  1 of record 700

 Recomputing wavefunction for reoriented structure

 Current geometry (xyz format, in Angstrom)

    9
 HF-SCF000/6-311G(D,P)  ENERGY=-191.13182874
 O         -0.1403513013       -0.0548581945       -2.0346188349
 H          0.2954750670       -0.1258978193       -1.1988308702
 H          0.0521902937        0.8139483083       -2.3390227776
 C         -0.5904393908        0.0017301500        1.4429107544
 H         -0.5918985957        0.6401695340        2.3223046666
 H         -0.8658319887       -1.0084034184        1.7334070759
 H         -1.3252441615        0.3692247349        0.7408184314
 O          0.6537304223        0.0315324967        0.7883305722
 H          1.3178731765       -0.3394462850        1.3403258240

 **********************************************************************************************************************************


 **********************************************************************************************************************************
 DATASETS  * FILE   NREC   LENGTH (MB)   RECORD NAMES
              1      18       29.00       500      610      700      900      950      970     1000      129      960     1100   
                                          VAR    BASINP    GEOM    SYMINP    ZMAT    AOBASIS   BASIS     P2S    ABASIS      S 
                                         1400     1410     1200     1210     1080     1600     1650     1700   
                                           T        V       H0       H01     AOSYM     SMH    MOLCAS    OPER   

              2       4        0.61       700     1000      520     2100   
                                         GEOM     BASIS   MCVARS     RHF  

 PROGRAMS   *        TOTAL      OPTG    HF-SCF       INT
 CPU TIMES  *       195.92    192.62      2.40      0.71
 REAL TIME  *        99.77 SEC
 DISK USED  *        30.22 MB (local),      280.08 MB (total)
 SF USED    *         0.14 MB
 GA USED    *         0.00 MB       (max)       0.00 MB       (current)
 **********************************************************************************************************************************


 PROGRAM * HESSIAN

 PROGRAM * MCKINLEY (Hessian of the energy)     Author: A. Bernhardsson, R. Lindh

 Orbitals from record         2100.2

 Number of closed-shell orbitals: 14 ( 14 )
 Number of occupied orbitals:     14 ( 14 )

 Number of electrons= 28     Singlet     Space symmetry=1      Wavefunction type: CLOSED          


 McKinley needed    142.47 seconds of CPU time

 Entering CPHF calculation

 CPHF needed 226 iterations for 27 perturbations.  Total CPU time:   38.61 sec


 HF-SCF hessian saved to record  5300.2

 PROGRAM * FREQUENCIES (Calculation of harmonic vibrational spectra for HF-SCF)


 Permanent Dipole Moment [debye]
   1-  3    0.000000    0.000000    0.000000

 Dipole Moment Norm    0.0000000 [debye]

 Dipole Moment Derivatives [debye/ang]
              1             2             3             4             5             6             7             8
    1    0.00000000    0.00000000    0.00000000    0.00000000    0.00000000    0.00000000    0.00000000    0.00000000
    2    0.00000000    0.00000000    0.00000000    0.00000000    0.00000000    0.00000000    0.00000000    0.00000000
    3    0.00000000    0.00000000    0.00000000    0.00000000    0.00000000    0.00000000    0.00000000    0.00000000
              9            10            11            12            13            14            15            16
    1    0.00000000    0.00000000    0.00000000    0.00000000    0.00000000    0.00000000    0.00000000    0.00000000
    2    0.00000000    0.00000000    0.00000000    0.00000000    0.00000000    0.00000000    0.00000000    0.00000000
    3    0.00000000    0.00000000    0.00000000    0.00000000    0.00000000    0.00000000    0.00000000    0.00000000
             17            18            19            20            21            22            23            24
    1    0.00000000    0.00000000    0.00000000    0.00000000    0.00000000    0.00000000    0.00000000    0.00000000
    2    0.00000000    0.00000000    0.00000000    0.00000000    0.00000000    0.00000000    0.00000000    0.00000000
    3    0.00000000    0.00000000    0.00000000    0.00000000    0.00000000    0.00000000    0.00000000    0.00000000
             25            26            27
    1    0.00000000    0.00000000    0.00000000
    2    0.00000000    0.00000000    0.00000000
    3    0.00000000    0.00000000    0.00000000

 Projecting out rotations and translations

 Force Constants (Second Derivatives of the Energy) in [a.u.]
                             OX1         OY1         OZ1         HX2         HY2     
           OX1           0.1834818
           OY1           0.1253617   0.5810687
           OZ1           0.2264296  -0.2064917   0.5688288
           HX2          -0.1417270   0.0144876  -0.2513684   0.1413976
           HY2          -0.0149156  -0.0538574   0.0092710  -0.0108001   0.0628782
           HZ2          -0.2304598   0.0604955  -0.4647702   0.2377529  -0.0578692
           HX3          -0.0438255  -0.1396797   0.0284505   0.0056501   0.0250266
           HY3          -0.1106263  -0.5296573   0.1969021  -0.0044369  -0.0057063
           HZ3           0.0068690   0.1455942  -0.0971307   0.0120187   0.0488010
           CX4          -0.0037823   0.0009159  -0.0017535   0.0037977  -0.0004554
           CY4           0.0007124  -0.0007125  -0.0005666  -0.0003513   0.0010377
           CZ4          -0.0005163   0.0000103   0.0019773   0.0026250  -0.0002542
           HX5           0.0008141  -0.0000921   0.0000786  -0.0011022   0.0000940
           HY5          -0.0000809   0.0001534  -0.0000341   0.0000192  -0.0001953
           HZ5           0.0000971   0.0000818  -0.0008568  -0.0000539  -0.0000667
           HX6           0.0004699  -0.0001190   0.0001968  -0.0005903  -0.0000334
           HY6          -0.0000332   0.0003102   0.0003595  -0.0000192  -0.0003428
           HZ6          -0.0001032  -0.0004620  -0.0003382   0.0002941   0.0005693
           HX7           0.0010028  -0.0005678  -0.0008850  -0.0012938   0.0005465
           HY7          -0.0005056  -0.0004318   0.0003865   0.0007165   0.0002262
           HZ7          -0.0001658   0.0001193   0.0000305   0.0004155  -0.0001374
           OX8           0.0035554  -0.0004689  -0.0026711  -0.0061696   0.0009031
           OY8           0.0000607   0.0033938   0.0006824   0.0007980  -0.0044875
           OZ8          -0.0025632   0.0013418  -0.0063531  -0.0002151  -0.0019200
           HX9           0.0000109   0.0001622   0.0015225   0.0000375  -0.0003657
           HY9           0.0000267  -0.0002671  -0.0005091  -0.0004138   0.0004472
           HZ9           0.0004125  -0.0006892  -0.0013877  -0.0014688   0.0016062
                             HZ2         HX3         HY3         HZ3         CX4     
           HZ2           0.4813274
           HX3          -0.0095341   0.0386483
           HY3          -0.0028896   0.1151568   0.5354626
           HZ3          -0.0136811  -0.0188113  -0.1935682   0.1111986
           CX4           0.0062243   0.0007030  -0.0003335   0.0000954   0.5869283
           CY4          -0.0003543  -0.0001167  -0.0000123   0.0002248  -0.0127135
           CZ4          -0.0039528   0.0001002   0.0001349  -0.0003497   0.0547338
           HX5          -0.0008858  -0.0000843   0.0000467   0.0000094  -0.0619642
           HY5           0.0001776   0.0000157   0.0000076   0.0000102  -0.0069505
           HZ5           0.0011319  -0.0000110  -0.0000967   0.0001085  -0.0114216
           HX6          -0.0007813  -0.0001296   0.0000561  -0.0000011  -0.0727996
           HY6          -0.0003810   0.0000505  -0.0000074  -0.0001501  -0.0543901
           HZ6           0.0005297  -0.0000801   0.0000032   0.0001652   0.0121910
           HX7          -0.0001440  -0.0001861  -0.0000191   0.0002527  -0.1782150
           HY7          -0.0001370  -0.0001646   0.0001218   0.0001398   0.0670597
           HZ7           0.0000412   0.0000785   0.0000895  -0.0001051  -0.1379256
           OX8           0.0000904  -0.0009054   0.0001433  -0.0002012  -0.2460927
           OY8           0.0003591  -0.0003380  -0.0002318  -0.0010067   0.0111622
           OZ8          -0.0024266  -0.0000673  -0.0005742  -0.0003475   0.0563174
           HX9          -0.0022626   0.0001296   0.0000130  -0.0002317  -0.0285752
           HY9           0.0005988   0.0000494   0.0000232  -0.0000449  -0.0042948
           HZ9           0.0018005  -0.0001253  -0.0000011   0.0001417   0.0215389
                             CY4         CZ4         HX5         HY5         HZ5     
           CY4           0.6432441
           CZ4          -0.0132284   0.6472443
           HX5          -0.0091333  -0.0178791   0.0687275
           HY5          -0.1618500  -0.1293830   0.0059581   0.1631740
           HZ5          -0.1269205  -0.2331771   0.0002179   0.1446077   0.2543114
           HX6          -0.0481865   0.0090879   0.0024717  -0.0028437  -0.0007878
           HY6          -0.3059421   0.0642731  -0.0031716  -0.0190221   0.0052688
           HZ6           0.0597503  -0.0795507  -0.0065042  -0.0285108   0.0104746
           HX7           0.0617528  -0.1210875   0.0020638  -0.0007377  -0.0016461
           HY7          -0.0969394   0.0667793  -0.0161602   0.0101724  -0.0155108
           HZ7           0.0703097  -0.1955787  -0.0180128   0.0107004  -0.0172929
           OX8          -0.0095296   0.1005389  -0.0128264   0.0041418   0.0138665
           OY8          -0.0802252   0.0127312   0.0218826   0.0082405  -0.0078683
           OZ8           0.0215028  -0.1520914   0.0421399   0.0033501  -0.0147986
           HX9           0.0175658  -0.0276030   0.0019000   0.0004780  -0.0002611
           HY9           0.0013998  -0.0010632   0.0005758  -0.0006805   0.0005047
           HZ9          -0.0107178   0.0154789   0.0008361  -0.0009182   0.0000989
                             HX6         HY6         HZ6         HX7         HY7     
           HX6           0.0838875
           HY6           0.0645057   0.3240056
           HZ6          -0.0245917  -0.0726584   0.0789598
           HX7           0.0087002  -0.0018539   0.0054977   0.2111825
           HY7           0.0231788  -0.0102094   0.0241372  -0.0730555   0.0932844
           HZ7          -0.0045362   0.0020131  -0.0038805   0.1344715  -0.0735392
           OX8          -0.0239387  -0.0041361   0.0145345  -0.0377446  -0.0001859
           OY8          -0.0349518   0.0107491   0.0179391   0.0152849   0.0030411
           OZ8           0.0211469   0.0009824  -0.0066202  -0.0211913  -0.0019027
           HX9           0.0019288  -0.0009521  -0.0012381  -0.0055098  -0.0008834
           HY9          -0.0016061   0.0004588  -0.0007678  -0.0013503   0.0007347
           HZ9           0.0002665   0.0002927   0.0002602   0.0047321  -0.0003531
                             HZ7         OX8         OY8         OZ8         HX9     
           HZ7           0.2002749
           OX8           0.0203837   0.6440333
           OY8          -0.0091855  -0.1670337   0.1633516
           OZ8           0.0176083   0.1102599  -0.1734523   0.4243733
           HX9           0.0052913  -0.3199113   0.1531351  -0.2058270   0.3499896
           HY9          -0.0003700   0.1761660  -0.1038317   0.1506722  -0.1691530
           HZ9          -0.0010976  -0.2568016   0.1598011  -0.2593442   0.2306096
                             HY9         HZ9     
           HY9           0.1017156
           HZ9          -0.1490206   0.2440492


 Atomic Masses
   1-  9   15.994910    1.007825    1.007825   12.000000    1.007825    1.007825    1.007825   15.994910    1.007825

 Mass weighted Second Derivative Matrix
                             OX1         OY1         OZ1         HX2         HY2     
           OX1           0.0114713
           OY1           0.0078376   0.0363284
           OZ1           0.0141564  -0.0129098   0.0355631
           HX2          -0.0352995   0.0036084  -0.0626076   0.1402998
           HY2          -0.0037150  -0.0134141   0.0023091  -0.0107163   0.0623900
           HZ2          -0.0574000   0.0150675  -0.1157590   0.2359070  -0.0574199
           HX3          -0.0109155  -0.0347896   0.0070861   0.0056063   0.0248323
           HY3          -0.0275534  -0.1319203   0.0490419  -0.0044024  -0.0056620
           HZ3           0.0017109   0.0362627  -0.0241921   0.0119254   0.0484221
           CX4          -0.0002730   0.0000661  -0.0001266   0.0010920  -0.0001309
           CY4           0.0000514  -0.0000514  -0.0000409  -0.0001010   0.0002984
           CZ4          -0.0000373   0.0000007   0.0001427   0.0007548  -0.0000731
           HX5           0.0002028  -0.0000229   0.0000196  -0.0010937   0.0000932
           HY5          -0.0000201   0.0000382  -0.0000085   0.0000191  -0.0001938
           HZ5           0.0000242   0.0000204  -0.0002134  -0.0000535  -0.0000662
           HX6           0.0001170  -0.0000296   0.0000490  -0.0005857  -0.0000332
           HY6          -0.0000083   0.0000772   0.0000895  -0.0000191  -0.0003401
           HZ6          -0.0000257  -0.0001151  -0.0000842   0.0002918   0.0005649
           HX7           0.0002498  -0.0001414  -0.0002204  -0.0012837   0.0005422
           HY7          -0.0001259  -0.0001076   0.0000963   0.0007110   0.0002244
           HZ7          -0.0000413   0.0000297   0.0000076   0.0004123  -0.0001363
           OX8           0.0002223  -0.0000293  -0.0001670  -0.0015366   0.0002249
           OY8           0.0000038   0.0002122   0.0000427   0.0001987  -0.0011177
           OZ8          -0.0001603   0.0000839  -0.0003972  -0.0000536  -0.0004782
           HX9           0.0000027   0.0000404   0.0003792   0.0000372  -0.0003628
           HY9           0.0000067  -0.0000665  -0.0001268  -0.0004106   0.0004437
           HZ9           0.0001027  -0.0001717  -0.0003456  -0.0014574   0.0015937
                             HZ2         HX3         HY3         HZ3         CX4     
           HZ2           0.4775902
           HX3          -0.0094601   0.0383482
           HY3          -0.0028671   0.1142627   0.5313051
           HZ3          -0.0135749  -0.0186652  -0.1920653   0.1103353
           CX4           0.0017898   0.0002021  -0.0000959   0.0000274   0.0489107
           CY4          -0.0001019  -0.0000336  -0.0000036   0.0000646  -0.0010595
           CZ4          -0.0011366   0.0000288   0.0000388  -0.0001006   0.0045611
           HX5          -0.0008789  -0.0000837   0.0000464   0.0000093  -0.0178179
           HY5           0.0001762   0.0000156   0.0000075   0.0000101  -0.0019986
           HZ5           0.0011231  -0.0000109  -0.0000960   0.0001077  -0.0032843
           HX6          -0.0007752  -0.0001285   0.0000556  -0.0000011  -0.0209337
           HY6          -0.0003780   0.0000501  -0.0000073  -0.0001490  -0.0156400
           HZ6           0.0005256  -0.0000795   0.0000032   0.0001639   0.0035055
           HX7          -0.0001429  -0.0001847  -0.0000190   0.0002507  -0.0512461
           HY7          -0.0001359  -0.0001633   0.0001208   0.0001387   0.0192832
           HZ7           0.0000409   0.0000779   0.0000888  -0.0001043  -0.0396608
           OX8           0.0000225  -0.0002255   0.0000357  -0.0000501  -0.0177630
           OY8           0.0000894  -0.0000842  -0.0000577  -0.0002507   0.0008057
           OZ8          -0.0006044  -0.0000168  -0.0001430  -0.0000865   0.0040650
           HX9          -0.0022450   0.0001285   0.0000129  -0.0002299  -0.0082169
           HY9           0.0005941   0.0000490   0.0000231  -0.0000445  -0.0012350
           HZ9           0.0017865  -0.0001244  -0.0000011   0.0001406   0.0061936
                             CY4         CZ4         HX5         HY5         HZ5     
           CY4           0.0536037
           CZ4          -0.0011024   0.0539370
           HX5          -0.0026263  -0.0051412   0.0681939
           HY5          -0.0465403  -0.0372044   0.0059119   0.1619071
           HZ5          -0.0364963  -0.0670506   0.0002162   0.1434850   0.2523369
           HX6          -0.0138561   0.0026133   0.0024525  -0.0028217  -0.0007817
           HY6          -0.0879744   0.0184819  -0.0031470  -0.0188744   0.0052279
           HZ6           0.0171813  -0.0228750  -0.0064537  -0.0282895   0.0103933
           HX7           0.0177572  -0.0348190   0.0020477  -0.0007319  -0.0016333
           HY7          -0.0278752   0.0192025  -0.0160347   0.0100934  -0.0153904
           HZ7           0.0202177  -0.0562391  -0.0178730   0.0106173  -0.0171587
           OX8          -0.0006878   0.0072569  -0.0031946   0.0010316   0.0034537
           OY8          -0.0057907   0.0009189   0.0054502   0.0020524  -0.0019597
           OZ8           0.0015521  -0.0109780   0.0104957   0.0008344  -0.0036858
           HX9           0.0050511  -0.0079373   0.0018853   0.0004743  -0.0002590
           HY9           0.0004025  -0.0003057   0.0005714  -0.0006752   0.0005008
           HZ9          -0.0030819   0.0044510   0.0008296  -0.0009111   0.0000982
                             HX6         HY6         HZ6         HX7         HY7     
           HX6           0.0832361
           HY6           0.0640048   0.3214900
           HZ6          -0.0244008  -0.0720943   0.0783467
           HX7           0.0086327  -0.0018395   0.0054550   0.2095429
           HY7           0.0229988  -0.0101301   0.0239498  -0.0724882   0.0925602
           HZ7          -0.0045010   0.0019975  -0.0038504   0.1334274  -0.0729682
           OX8          -0.0059624  -0.0010302   0.0036201  -0.0094009  -0.0000463
           OY8          -0.0087053   0.0026773   0.0044680   0.0038070   0.0007574
           OZ8           0.0052670   0.0002447  -0.0016489  -0.0052781  -0.0004739
           HX9           0.0019138  -0.0009447  -0.0012284  -0.0054671  -0.0008765
           HY9          -0.0015936   0.0004553  -0.0007619  -0.0013398   0.0007290
           HZ9           0.0002645   0.0002904   0.0002582   0.0046953  -0.0003503
                             HZ7         OX8         OY8         OZ8         HX9     
           HZ7           0.1987199
           OX8           0.0050769   0.0402649
           OY8          -0.0022878  -0.0104429   0.0102127
           OZ8           0.0043856   0.0068934  -0.0108442   0.0265318
           HX9           0.0052502  -0.0796794   0.0381409  -0.0512648   0.3472722
           HY9          -0.0003671   0.0438772  -0.0258611   0.0375275  -0.1678396
           HZ9          -0.0010891  -0.0639608   0.0398012  -0.0645941   0.2288191
                             HY9         HZ9     
           HY9           0.1009258
           HZ9          -0.1478636   0.2421543


 Mass Weighted 2nd Derivative Matrix Eigenvalues
   1- 10    0.000000    0.000000    0.000000    0.000000    0.000000    0.000000    0.000120    0.000177    0.000870    0.001163
  11- 20    0.002662    0.004778    0.013372    0.050653    0.051543    0.061907    0.083410    0.098440    0.099546    0.100569
  21- 27    0.119648    0.377390    0.390275    0.406664    0.635354    0.663668    0.671566

 Mass Weighted 2nd Derivative Matrix Eigenvectors
              1             2             3             4             5             6             7             8
    1    0.00000000    0.00000000    0.00000000    0.90155768    0.00000000    0.00000000    0.03835679    0.23842719
    2    0.57167142   -0.02827310    0.14867261   -0.00738650    0.08681796    0.72454549   -0.13881735    0.01363098
    3   -0.43212762   -0.04513099    0.24788504   -0.03753311    0.04374556    0.26239944   -0.05442012   -0.45617182
    4    0.00717641    0.01164939    0.03928810    0.17113976   -0.02275982   -0.01409220   -0.04540249   -0.08179766
    5    0.09144065    0.08612860    0.02457362    0.00390342   -0.03081755    0.13959130    0.08427307   -0.00818473
    6   -0.11663798   -0.00947933    0.04065281    0.01983447    0.01837736    0.06962116    0.02555880   -0.04156682
    7    0.02639561   -0.11826947    0.00091202    0.23526189    0.16427770   -0.00868325    0.05477346    0.05431738
    8    0.15036990    0.00646734    0.03561821    0.00068947   -0.02405088    0.20302942   -0.09072774    0.03250797
    9   -0.07216416   -0.04742211    0.05794510    0.00350340   -0.01595349    0.12075831   -0.14415830   -0.03484101
   10    0.14485474    0.00286885    0.58601445   -0.02718920   -0.10189130   -0.22224336    0.01195683    0.08183042
   11    0.01653915    0.25744075    0.08681757   -0.02691518    0.76520024   -0.10748413   -0.05164594    0.01699794
   12   -0.34775644   -0.04330722    0.29123805   -0.13676441    0.01347515    0.21047762    0.09510089    0.57434220
   13    0.07407419   -0.08338662    0.22404457   -0.07534510    0.07850233   -0.09092331    0.14061905    0.15022132
   14   -0.03414945    0.11046730    0.02005620   -0.00781936    0.25153113   -0.08317630   -0.41377821    0.07626231
   15   -0.07245513   -0.03872488    0.08819675   -0.03973260   -0.01753172    0.09872458    0.31702951    0.11492616
   16    0.01055980    0.13818476    0.16568925   -0.01403524   -0.21979924   -0.05315317   -0.16141114    0.09782163
   17    0.00138991    0.04926479    0.02843817   -0.01143820    0.28246575   -0.05284147   -0.09965427    0.02138007
   18   -0.14240026    0.02953998    0.09187684   -0.05812104    0.03462809   -0.00376468   -0.42402154    0.29381553
   19    0.04654432   -0.05059427    0.14238336    0.03439529    0.04655389   -0.05761388    0.04198294   -0.10266924
   20    0.06121234   -0.05358065    0.04252440   -0.01750733    0.33417989   -0.00167427    0.42903692   -0.06823898
   21   -0.07602701   -0.02582574    0.12221427   -0.08896017   -0.01687664    0.06931562    0.21935914    0.25916747
   22    0.14130427   -0.01911217    0.55212322    0.14209067   -0.06566904   -0.21092805   -0.04236221   -0.34327147
   23   -0.03585559    0.86078369    0.02594263    0.03440495   -0.12128149    0.11135444    0.27405855   -0.05644085
   24   -0.45328367   -0.06696263    0.09633141    0.17482227    0.06858640    0.34049794    0.01588758   -0.16061406
   25    0.02905683    0.04673324    0.15868792    0.00351392   -0.09148449   -0.05694213   -0.05586355    0.01741967
   26   -0.05633239    0.32854506   -0.00870085    0.01740995   -0.13482621    0.00619475   -0.26971379    0.05816607
   27   -0.13787622   -0.00321820   -0.01022230    0.08846538    0.03730218    0.07565586   -0.16841913   -0.11618605
              9            10            11            12            13            14            15            16
    1   -0.19766191    0.18808992    0.09730089    0.00370610   -0.10037273   -0.00369923    0.00494728   -0.00090090
    2    0.10751487    0.00919054   -0.01531292    0.01117023    0.05085684    0.00023526   -0.00124788   -0.00043286
    3    0.05130403    0.61466064    0.11236660    0.05263159    0.07819059   -0.00174387   -0.00337914   -0.00128708
    4   -0.06766983   -0.00139760    0.16839049    0.16851272    0.80281976    0.02578681   -0.02741736   -0.00052363
    5    0.06119753    0.01011010    0.62523612    0.11928917   -0.29617025   -0.00865968    0.01405701    0.00108761
    6    0.02557316    0.17962371    0.00826745   -0.06474608   -0.44012160   -0.01183249    0.01637791    0.00048875
    7    0.75031228    0.11233592   -0.39641492   -0.08739528    0.03123313    0.00196319   -0.00534908    0.00015432
    8   -0.32040624   -0.02071491   -0.10929503   -0.04040888   -0.02651470    0.00014622    0.00117645    0.00064234
    9   -0.47161432    0.13082821   -0.53385524   -0.16360086   -0.05657772    0.00151517   -0.00030542    0.00194896
   10    0.00498978    0.02571339   -0.00994362    0.00297804   -0.02603686   -0.36642716   -0.49166738   -0.06612361
   11   -0.09958181   -0.00476552    0.03072888    0.02137417   -0.00111836   -0.07736449    0.05798757   -0.38030361
   12    0.01844646   -0.04605812    0.02552654    0.01709592    0.07661798    0.35712297    0.08050950   -0.15940952
   13   -0.04429006    0.10956184   -0.01480564    0.10779553    0.02186764   -0.29814074    0.10850627    0.53064709
   14    0.02519281    0.00487058    0.10039437   -0.13603220   -0.00774823    0.08373988   -0.07704195    0.17441656
   15   -0.03395314   -0.01845916   -0.05864342    0.10977601    0.02969475    0.01720050    0.08390070   -0.25673424
   16    0.06995370    0.04738823    0.02255746   -0.13287549    0.02667480   -0.34809515    0.13165763   -0.43725608
   17   -0.02981832   -0.00092128    0.03256561   -0.00398267   -0.00695883    0.02568260   -0.03352556    0.11826277
   18    0.06771410    0.02398084    0.11053253   -0.15540081    0.03577505    0.01687063    0.08673869    0.36539297
   19   -0.01723582   -0.07159776   -0.01513127    0.04032436   -0.03385825    0.21641201   -0.39295884    0.01218885
   20   -0.11886882   -0.00786653   -0.08649571    0.23361550   -0.01846878    0.04681279   -0.03522687    0.22757497
   21   -0.02193543    0.06656098   -0.02991176    0.08421075    0.04472790   -0.19660933    0.26348951    0.09824365
   22    0.01483798   -0.26001422   -0.01858748   -0.06866244   -0.07349845    0.32415299    0.51842950    0.03226500
   23    0.05784106   -0.00227683   -0.09754229   -0.26075785    0.07299038    0.01193410    0.00087202    0.19734159
   24    0.03552193   -0.61269695    0.01230453   -0.09950856   -0.03439553   -0.17253320   -0.25531823    0.08561087
   25    0.02004715    0.00151456   -0.04386346    0.15213559   -0.06622430    0.38985138   -0.20290999   -0.00199116
   26    0.06757660    0.00342317   -0.21884588    0.74807380   -0.13366362    0.07075380   -0.06803522    0.00585533
   27    0.02466586   -0.23142815   -0.08113788    0.31751817   -0.05234957   -0.36515649    0.30259082    0.00479300
             17            18            19            20            21            22            23            24
    1   -0.00633099    0.00068045    0.00183832    0.00565405   -0.14515495   -0.00070599    0.00025289    0.00032663
    2   -0.00144499   -0.00181504    0.00262063    0.00350021   -0.18911390    0.00040631    0.00033632   -0.00021442
    3   -0.00435573   -0.00607627    0.00244719    0.00422668   -0.11624433   -0.00144924    0.00015519   -0.00093695
    4    0.02224063   -0.00827494    0.00096604   -0.01325176    0.23993069    0.00303168   -0.00134385   -0.00188573
    5   -0.00140281    0.00508599   -0.01057554   -0.01117320    0.66986923   -0.00138239   -0.00161969    0.00051342
    6   -0.00928866    0.00780434   -0.00071232    0.00439814   -0.07349927    0.00398075   -0.00002934    0.00227741
    7    0.00756929   -0.00162745   -0.00847051   -0.01068663    0.34790872   -0.00024038   -0.00010446   -0.00009384
    8    0.00105297    0.00188667   -0.00134866   -0.00221286    0.10701730   -0.00024255   -0.00009159    0.00046046
    9    0.00749751    0.00291060   -0.00848812   -0.01316832    0.53324015   -0.00062296   -0.00051395    0.00007630
   10   -0.18309182   -0.32433966   -0.08873236    0.03920096    0.00345604   -0.09058616   -0.05142796   -0.16548643
   11    0.15670269    0.04315109   -0.18567818    0.03227951   -0.00279058   -0.02778060   -0.29168189    0.10967613
   12   -0.29711831    0.12448986   -0.02770437   -0.18402267   -0.00087487    0.14349523   -0.10068897   -0.22890353
   13    0.20771899    0.53430936   -0.29877768   -0.21902227   -0.01309998   -0.01148870    0.01413902    0.00105745
   14   -0.15603322   -0.05896451    0.24327582   -0.50263206   -0.00543513   -0.40963117    0.37938538    0.12195756
   15    0.05759090    0.06997040   -0.20065502    0.34625590    0.00531218   -0.54277075    0.53382679    0.14502105
   16    0.26082869    0.38937762    0.48932796   -0.01155183    0.00355420    0.15448543    0.15812711   -0.05056279
   17    0.01644094   -0.12983273   -0.12342205    0.19992015    0.00520177    0.60672002    0.64178024   -0.18310974
   18    0.09712688   -0.02993149    0.13500029    0.65135142    0.01631108   -0.15956292   -0.18858570    0.03822745
   19   -0.32349421    0.41331255    0.15485500    0.17384266    0.00911827    0.20078491    0.00371251    0.61322885
   20   -0.01035517   -0.01155524    0.66131121    0.11040671    0.01335142   -0.10278035   -0.02362427   -0.31299956
   21    0.16023201   -0.48807465    0.17993749   -0.14627557   -0.00013831    0.19868432   -0.00034320    0.60042614
   22   -0.00475451   -0.04211234   -0.01002344   -0.00140181   -0.00287478   -0.00640201    0.00045150    0.00251952
   23   -0.11996041    0.01382643   -0.03250534    0.02311639   -0.00703562    0.00007609    0.00236115   -0.00227632
   24    0.29832821    0.00002178   -0.00311846   -0.07094023   -0.00644336    0.00239522    0.00038716    0.00481442
   25    0.50108075   -0.04286517    0.00088942   -0.07153815   -0.00961546   -0.00567694    0.00012225   -0.00205045
   26    0.09323042   -0.00336962   -0.00947965   -0.01172873    0.00104661    0.00125514   -0.00009077    0.00464903
   27   -0.45904381    0.03187261   -0.00681064    0.05820605    0.01055714    0.00137441    0.00092490   -0.01161464
             25            26            27
    1   -0.11691624    0.00284584    0.00283587
    2   -0.06748586    0.01157915   -0.20786060
    3   -0.15888655   -0.00340977    0.16041724
    4    0.40013300   -0.00173825   -0.18387937
    5   -0.09870217    0.00234198    0.01634698
    6    0.78964236   -0.00445109   -0.34096058
    7    0.06625803   -0.00984999    0.17263064
    8    0.36626648   -0.04802175    0.81221688
    9   -0.15449841    0.01807947   -0.29829267
   10    0.00371624    0.00019522   -0.00161235
   11   -0.00031853    0.00229698    0.00018845
   12   -0.00136576   -0.00517398    0.00046219
   13   -0.00211226    0.00196022    0.00100977
   14    0.00134819   -0.00006153   -0.00062410
   15    0.00292163   -0.00102290   -0.00163102
   16   -0.00189198    0.00246794    0.00100259
   17   -0.00172535   -0.00098962    0.00083093
   18    0.00122985   -0.00054185   -0.00067742
   19   -0.00206899    0.00775472    0.00094477
   20    0.00070432   -0.00366861   -0.00034526
   21   -0.00028382    0.00649136    0.00062115
   22   -0.00582070   -0.17601436   -0.00780549
   23    0.00301985    0.09472050    0.00424638
   24   -0.00453259   -0.13842426   -0.00637760
   25    0.01581915    0.68860175    0.03365321
   26   -0.00997220   -0.38100380   -0.01791587
   27    0.01673149    0.56433790    0.02568146

   Low Vibration      Wavenumber
        Nr             [1/cm] 
        1                0.00
        2                0.00
        3                0.00
        4                0.00
        5                0.00
        6                0.00

     Vibration        Wavenumber
        Nr             [1/cm] 
        1               56.40
        2               68.42
        3              151.64
        4              175.34
        5              265.22
        6              355.33
        7              594.44
        8             1156.93
        9             1167.04
       10             1279.01
       11             1484.62
       12             1612.83
       13             1621.87
       14             1630.18
       15             1778.10
       16             3157.91
       17             3211.37
       18             3278.10
       19             4097.43
       20             4187.74
       21             4212.58

 FREQUENCIES * CALCULATION OF NORMAL MODES FOR HF-SCF


 Atomic Coordinates

  Nr  Atom  Charge       X              Y              Z

   1   O     8.00   -0.265225521   -0.103666963   -3.844872366
   2   H     1.00    0.558366953   -0.237912398   -2.265462014
   3   H     1.00    0.098625361    1.538139382   -4.420112449
   4   C     6.00   -1.115768742    0.003269510    2.726706148
   5   H     1.00   -1.118526239    1.209745093    4.388519798
   6   H     1.00   -1.636185329   -1.905606284    3.275664636
   7   H     1.00   -2.504348514    0.697733627    1.399943944
   8   O     8.00    1.235371458    0.059587783    1.489728877
   9   H     1.00    2.490419371   -0.641460513    2.532848725

 Gradient norm at reference geometry: 0.27511D-03

 Normal Modes

                              1 A         2 A         3 A         4 A         5 A  
 Wavenumbers [cm-1]           56.40       68.42      151.64      175.34      265.22
 Intensities [km/mol]          0.00        0.00        0.00        0.00        0.00
 Intensities [relative]        0.00        0.00        0.00        0.00        0.00
           OX1              0.00959     0.05962    -0.04942     0.04703     0.02433
           OY1             -0.03471     0.00341     0.02688     0.00230    -0.00383
           OZ1             -0.01361    -0.11406     0.01283     0.15369     0.02810
           HX2             -0.04523    -0.08148    -0.06741    -0.00139     0.16774
           HY2              0.08395    -0.00815     0.06096     0.01007     0.62280
           HZ2              0.02546    -0.04141     0.02547     0.17893     0.00824
           HX3              0.05456     0.05411     0.74739     0.11190    -0.39487
           HY3             -0.09037     0.03238    -0.31916    -0.02063    -0.10887
           HZ3             -0.14360    -0.03471    -0.46978     0.13032    -0.53178
           CX4              0.00345     0.02362     0.00144     0.00742    -0.00287
           CY4             -0.01491     0.00491    -0.02875    -0.00138     0.00887
           CZ4              0.02745     0.16580     0.00533    -0.01330     0.00737
           HX5              0.14007     0.14964    -0.04412     0.10914    -0.01475
           HY5             -0.41217     0.07597     0.02509     0.00485     0.10000
           HZ5              0.31580     0.11448    -0.03382    -0.01839    -0.05842
           HX6             -0.16078     0.09744     0.06968     0.04720     0.02247
           HY6             -0.09927     0.02130    -0.02970    -0.00092     0.03244
           HZ6             -0.42237     0.29267     0.06745     0.02389     0.11010
           HX7              0.04182    -0.10227    -0.01717    -0.07132    -0.01507
           HY7              0.42737    -0.06797    -0.11841    -0.00784    -0.08616
           HZ7              0.21851     0.25816    -0.02185     0.06630    -0.02980
           OX8             -0.01059    -0.08583     0.00371    -0.06501    -0.00465
           OY8              0.06853    -0.01411     0.01446    -0.00057    -0.02439
           OZ8              0.00397    -0.04016     0.00888    -0.15320     0.00308
           HX9             -0.05565     0.01735     0.01997     0.00151    -0.04369
           HY9             -0.26866     0.05794     0.06731     0.00341    -0.21799
           HZ9             -0.16776    -0.11573     0.02457    -0.23053    -0.08082

                              6 A         7 A         8 A         9 A        10 A  
 Wavenumbers [cm-1]          355.33      594.44     1156.93     1167.04     1279.01
 Intensities [km/mol]          0.00        0.00        0.00        0.00        0.00
 Intensities [relative]        0.00        0.00        0.00        0.00        0.00
           OX1              0.00093    -0.02510    -0.00092     0.00124    -0.00023
           OY1              0.00279     0.01272     0.00006    -0.00031    -0.00011
           OZ1              0.01316     0.01955    -0.00044    -0.00084    -0.00032
           HX2              0.16786     0.79970     0.02569    -0.02731    -0.00052
           HY2              0.11883    -0.29502    -0.00863     0.01400     0.00108
           HZ2             -0.06449    -0.43841    -0.01179     0.01631     0.00049
           HX3             -0.08706     0.03111     0.00196    -0.00533     0.00015
           HY3             -0.04025    -0.02641     0.00015     0.00117     0.00064
           HZ3             -0.16296    -0.05636     0.00151    -0.00030     0.00194
           CX4              0.00086    -0.00752    -0.10578    -0.14193    -0.01909
           CY4              0.00617    -0.00032    -0.02233     0.01674    -0.10978
           CZ4              0.00494     0.02212     0.10309     0.02324    -0.04602
           HX5              0.10738     0.02178    -0.29698     0.10808     0.52858
           HY5             -0.13550    -0.00772     0.08341    -0.07674     0.17374
           HZ5              0.10935     0.02958     0.01713     0.08357    -0.25574
           HX6             -0.13236     0.02657    -0.34674     0.13115    -0.43556
           HY6             -0.00397    -0.00693     0.02558    -0.03340     0.11780
           HZ6             -0.15480     0.03564     0.01681     0.08640     0.36397
           HX7              0.04017    -0.03373     0.21557    -0.39143     0.01214
           HY7              0.23271    -0.01840     0.04663    -0.03509     0.22669
           HZ7              0.08388     0.04455    -0.19584     0.26246     0.09786
           OX8             -0.01717    -0.01838     0.08105     0.12963     0.00807
           OY8             -0.06520     0.01825     0.00298     0.00022     0.04934
           OZ8             -0.02488    -0.00860    -0.04314    -0.06384     0.02141
           HX9              0.15154    -0.06597     0.38833    -0.20212    -0.00198
           HY9              0.74516    -0.13314     0.07048    -0.06777     0.00583
           HZ9              0.31628    -0.05215    -0.36374     0.30141     0.00477

                             11 A        12 A        13 A        14 A        15 A  
 Wavenumbers [cm-1]         1484.62     1612.83     1621.87     1630.18     1778.10
 Intensities [km/mol]          0.00        0.00        0.00        0.00        0.00
 Intensities [relative]        0.00        0.00        0.00        0.00        0.00
           OX1             -0.00158     0.00017     0.00046     0.00141    -0.03629
           OY1             -0.00036    -0.00045     0.00066     0.00088    -0.04729
           OZ1             -0.00109    -0.00152     0.00061     0.00106    -0.02907
           HX2              0.02215    -0.00824     0.00096    -0.01320     0.23900
           HY2             -0.00140     0.00507    -0.01053    -0.01113     0.66726
           HZ2             -0.00925     0.00777    -0.00071     0.00438    -0.07321
           HX3              0.00754    -0.00162    -0.00844    -0.01065     0.34656
           HY3              0.00105     0.00188    -0.00134    -0.00220     0.10660
           HZ3              0.00747     0.00290    -0.00846    -0.01312     0.53117
           CX4             -0.05285    -0.09363    -0.02561     0.01132     0.00100
           CY4              0.04524     0.01246    -0.05360     0.00932    -0.00081
           CZ4             -0.08577     0.03594    -0.00800    -0.05312    -0.00025
           HX5              0.20691     0.53223    -0.29762    -0.21817    -0.01305
           HY5             -0.15543    -0.05874     0.24233    -0.50068    -0.00541
           HZ5              0.05737     0.06970    -0.19987     0.34491     0.00529
           HX6              0.25981     0.38786     0.48742    -0.01151     0.00354
           HY6              0.01638    -0.12933    -0.12294     0.19914     0.00518
           HZ6              0.09675    -0.02982     0.13448     0.64882     0.01625
           HX7             -0.32224     0.41170     0.15425     0.17317     0.00908
           HY7             -0.01031    -0.01151     0.65874     0.10998     0.01330
           HZ7              0.15961    -0.48618     0.17924    -0.14571    -0.00014
           OX8             -0.00119    -0.01053    -0.00251    -0.00035    -0.00072
           OY8             -0.02999     0.00346    -0.00813     0.00578    -0.00176
           OZ8              0.07459     0.00001    -0.00078    -0.01774    -0.00161
           HX9              0.49913    -0.04270     0.00089    -0.07126    -0.00958
           HY9              0.09287    -0.00336    -0.00944    -0.01168     0.00104
           HZ9             -0.45726     0.03175    -0.00678     0.05798     0.01052

                             16 A        17 A        18 A        19 A        20 A  
 Wavenumbers [cm-1]         3157.91     3211.37     3278.10     4097.43     4187.74
 Intensities [km/mol]          0.00        0.00        0.00        0.00        0.00
 Intensities [relative]        0.00        0.00        0.00        0.00        0.00
           OX1             -0.00018     0.00006     0.00008    -0.02923     0.00071
           OY1              0.00010     0.00008    -0.00005    -0.01687     0.00290
           OZ1             -0.00036     0.00004    -0.00023    -0.03973    -0.00085
           HX2              0.00302    -0.00134    -0.00188     0.39858    -0.00173
           HY2             -0.00138    -0.00161     0.00051    -0.09832     0.00233
           HZ2              0.00397    -0.00003     0.00227     0.78657    -0.00443
           HX3             -0.00024    -0.00010    -0.00009     0.06600    -0.00981
           HY3             -0.00024    -0.00009     0.00046     0.36484    -0.04783
           HZ3             -0.00062    -0.00051     0.00008    -0.15390     0.01801
           CX4             -0.02615    -0.01485    -0.04777     0.00107     0.00006
           CY4             -0.00802    -0.08420     0.03166    -0.00009     0.00066
           CZ4              0.04142    -0.02907    -0.06608    -0.00039    -0.00149
           HX5             -0.01144     0.01408     0.00105    -0.00210     0.00195
           HY5             -0.40804     0.37791     0.12148     0.00134    -0.00006
           HZ5             -0.54066     0.53175     0.14446     0.00291    -0.00102
           HX6              0.15388     0.15751    -0.05037    -0.00188     0.00246
           HY6              0.60436     0.63928    -0.18240    -0.00172    -0.00099
           HZ6             -0.15894    -0.18785     0.03808     0.00123    -0.00054
           HX7              0.20000     0.00370     0.61084    -0.00206     0.00772
           HY7             -0.10238    -0.02353    -0.31178     0.00070    -0.00365
           HZ7              0.19791    -0.00034     0.59809    -0.00028     0.00647
           OX8             -0.00160     0.00011     0.00063    -0.00146    -0.04401
           OY8              0.00002     0.00059    -0.00057     0.00076     0.02368
           OZ8              0.00060     0.00010     0.00120    -0.00113    -0.03461
           HX9             -0.00565     0.00012    -0.00204     0.01576     0.68592
           HY9              0.00125    -0.00009     0.00463    -0.00993    -0.37952
           HZ9              0.00137     0.00092    -0.01157     0.01667     0.56214

                             21 A  
 Wavenumbers [cm-1]         4212.58
 Intensities [km/mol]          0.00
 Intensities [relative]        0.00
           OX1              0.00071
           OY1             -0.05197
           OZ1              0.04011
           HX2             -0.18316
           HY2              0.01628
           HZ2             -0.33963
           HX3              0.17196
           HY3              0.80906
           HZ3             -0.29713
           CX4             -0.00047
           CY4              0.00005
           CZ4              0.00013
           HX5              0.00101
           HY5             -0.00062
           HZ5             -0.00162
           HX6              0.00100
           HY6              0.00083
           HZ6             -0.00067
           HX7              0.00094
           HY7             -0.00034
           HZ7              0.00062
           OX8             -0.00195
           OY8              0.00106
           OZ8             -0.00159
           HX9              0.03352
           HY9             -0.01785
           HZ9              0.02558


 Normal Modes of low/zero frequencies

                                  1           2           3           4           5
 Wavenumbers [cm-1]            0.00        0.00        0.00        0.00        0.00
 Intensities [km/mol]          0.00        0.00        0.00        0.00        0.00
 Intensities [relative]        0.00        0.00        0.00        0.00        0.00
           OX1              0.00000    -0.00000     0.00000     0.22543     0.00000
           OY1              0.14294    -0.00707     0.03717    -0.00185     0.02171
           OZ1             -0.10805    -0.01128     0.06198    -0.00938     0.01094
           HX2              0.00715     0.01160     0.03914     0.17047    -0.02267
           HY2              0.09108     0.08579     0.02448     0.00389    -0.03070
           HZ2             -0.11618    -0.00944     0.04049     0.01976     0.01831
           HX3              0.02629    -0.11781     0.00091     0.23435     0.16364
           HY3              0.14979     0.00644     0.03548     0.00069    -0.02396
           HZ3             -0.07188    -0.04724     0.05772     0.00349    -0.01589
           CX4              0.04182     0.00083     0.16917    -0.00785    -0.02941
           CY4              0.00477     0.07432     0.02506    -0.00777     0.22089
           CZ4             -0.10039    -0.01250     0.08407    -0.03948     0.00389
           HX5              0.07379    -0.08306     0.22317    -0.07505     0.07820
           HY5             -0.03402     0.11004     0.01998    -0.00779     0.25055
           HZ5             -0.07217    -0.03857     0.08785    -0.03958    -0.01746
           HX6              0.01052     0.13765     0.16504    -0.01398    -0.21894
           HY6              0.00138     0.04907     0.02833    -0.01139     0.28137
           HZ6             -0.14185     0.02943     0.09152    -0.05789     0.03449
           HX7              0.04636    -0.05040     0.14183     0.03426     0.04637
           HY7              0.06097    -0.05337     0.04236    -0.01744     0.33288
           HZ7             -0.07573    -0.02573     0.12174    -0.08861    -0.01681
           OX8              0.03533    -0.00478     0.13805     0.03553    -0.01642
           OY8             -0.00897     0.21523     0.00649     0.00860    -0.03033
           OZ8             -0.11334    -0.01674     0.02409     0.04371     0.01715
           HX9              0.02894     0.04655     0.15807     0.00350    -0.09113
           HY9             -0.05611     0.32727    -0.00867     0.01734    -0.13430
           HZ9             -0.13734    -0.00321    -0.01018     0.08812     0.03716

                                  6
 Wavenumbers [cm-1]            0.00
 Intensities [km/mol]          0.00
 Intensities [relative]        0.00
           OX1              0.00000
           OY1              0.18117
           OZ1              0.06561
           HX2             -0.01404
           HY2              0.13905
           HZ2              0.06935
           HX3             -0.00865
           HY3              0.20224
           HZ3              0.12029
           CX4             -0.06416
           CY4             -0.03103
           CZ4              0.06076
           HX5             -0.09057
           HY5             -0.08285
           HZ5              0.09834
           HX6             -0.05295
           HY6             -0.05264
           HZ6             -0.00375
           HX7             -0.05739
           HY7             -0.00167
           HZ7              0.06905
           OX8             -0.05274
           OY8              0.02784
           OZ8              0.08514
           HX9             -0.05672
           HY9              0.00617
           HZ9              0.07536


 Frequencies dumped to record   5400.2

 Zero point energy:  0.08097183 [H]    17771.26 [1/CM]      212.59 [KJ/MOL]
 Frequency information read from record  5400.2


 **********************************************************************************************************************************
 DATASETS  * FILE   NREC   LENGTH (MB)   RECORD NAMES
              1      18       29.00       500      610      700      900      950      970     1000      129      960     1100   
                                          VAR    BASINP    GEOM    SYMINP    ZMAT    AOBASIS   BASIS     P2S    ABASIS      S 
                                         1400     1410     1200     1210     1080     1600     1650     1700   
                                           T        V       H0       H01     AOSYM     SMH    MOLCAS    OPER   

              2       7        0.73       700     1000      520     2100     5300     5450     5400   
                                         GEOM     BASIS   MCVARS     RHF     HESS     NMOD     FREQ   

              4       5        3.38      4100     4000     4200     4300     4400   

 PROGRAMS   *        TOTAL      FREQ      OPTG    HF-SCF       INT
 CPU TIMES  *       377.05    181.12    192.62      2.40      0.71
 REAL TIME  *       171.79 SEC
 DISK USED  *        30.22 MB (local),      280.08 MB (total)
 SF USED    *         3.38 MB
 GA USED    *         0.00 MB       (max)       0.00 MB       (current)
 **********************************************************************************************************************************

 Dump information in style MOLDEN to methanolwaterdonor.molden                                                       

 Molecular orbitals read from record     2100.2  Type=RHF/CANONICAL  
 Occupation numbers read from record     2100.2  Type=RHF/RHF  
 Orbital energies read from record       2100.2  Type=RHF/CANONICAL  
 Redundancy group numbers read from rec  2100.2  Type=RHF/RHF  

 DUMP ORBITAL  1.1 AS ORBITAL    1  occ=    2.0000  eig=  -20.5645  GROUP=   2
 DUMP ORBITAL  2.1 AS ORBITAL    2  occ=    2.0000  eig=  -20.5119  GROUP=   2
 DUMP ORBITAL  3.1 AS ORBITAL    3  occ=    2.0000  eig=  -11.2767  GROUP=   2
 DUMP ORBITAL  4.1 AS ORBITAL    4  occ=    2.0000  eig=   -1.3820  GROUP=   2
 DUMP ORBITAL  5.1 AS ORBITAL    5  occ=    2.0000  eig=   -1.3201  GROUP=   2
 DUMP ORBITAL  6.1 AS ORBITAL    6  occ=    2.0000  eig=   -0.9411  GROUP=   2
 DUMP ORBITAL  7.1 AS ORBITAL    7  occ=    2.0000  eig=   -0.7192  GROUP=   2
 DUMP ORBITAL  8.1 AS ORBITAL    8  occ=    2.0000  eig=   -0.6863  GROUP=   2
 DUMP ORBITAL  9.1 AS ORBITAL    9  occ=    2.0000  eig=   -0.6352  GROUP=   2
 DUMP ORBITAL 10.1 AS ORBITAL   10  occ=    2.0000  eig=   -0.6117  GROUP=   2
 DUMP ORBITAL 11.1 AS ORBITAL   11  occ=    2.0000  eig=   -0.5486  GROUP=   2
 DUMP ORBITAL 12.1 AS ORBITAL   12  occ=    2.0000  eig=   -0.5136  GROUP=   2
 DUMP ORBITAL 13.1 AS ORBITAL   13  occ=    2.0000  eig=   -0.4724  GROUP=   2
 DUMP ORBITAL 14.1 AS ORBITAL   14  occ=    2.0000  eig=   -0.4650  GROUP=   2

 Total charge:      28.000000
 Frequency information read from record  5400.2

 **********************************************************************************************************************************

 HF/6-311G(D,P)//HF/6-311G(D,P) energy=   -191.131828744516

    OPTG(HF-SCF)          HF-SCF
   -191.13182874   -191.10118558
 **********************************************************************************************************************************
 Molpro calculation terminated
