
 Working directory              : /tmp/lme/molpro.Fi2MVRubPr/
 Global scratch directory       : /tmp/lme/molpro.Fi2MVRubPr/
 Wavefunction directory         : /home/lme/wfu/
 Main file repository           : /tmp/lme/molpro.Fi2MVRubPr/

 id        : liedlgroup

 Nodes     nprocs
 sv1-c724     6
 GA implementation: MPI file
 GA implementation (serial work in mppx): MPI file

 Using customized tuning parameters: mindgm=1; mindgv=20; mindgc=4; mindgr=1; noblas=0; minvec=7
 default implementation of scratch files=sf  


 Variables initialized (1045), CPU time= 0.02 sec
  ***,methanol
  memory,100,m
  orient,mass
  geometry={
 C,       -0.04713100,       0.66438900,       0.00000000
 O,       -0.04713100,      -0.75855100,       0.00000000
 H,       -1.09299500,       0.96978500,       0.00000000
 H,        0.87853400,      -1.04845800,       0.00000000
 H,        0.43714500,       1.08037600,       0.89177200
 H,        0.43714500,       1.08037600,      -0.89177200
 }
 
  mass,iso
  basis=6-311g(d,p)
 
  {hf
  start,atden}
 
 
  optg
  {frequencies, symm=auto, print=0,analytical}
  put,molden,ch3oh.molden
 Commands initialized (836), CPU time= 0.01 sec, 720 directives.
 Default parameters read. Elapsed time= 0.14 sec

 Checking input...
 Passed
1


                                         ***  PROGRAM SYSTEM MOLPRO  ***
                                       Copyright, TTI GmbH Stuttgart, 2015
                                    Version 2024.2 linked Tue Oct  8 23:14:51 2024


 **********************************************************************************************************************************
 LABEL *                                                                                                                                                                 
  (6 PROC) 64 bit mpp version                                                            DATE: 13-Nov-24          TIME: 09:11:46  
 **********************************************************************************************************************************

 SHA1:             5a9813c25d9a7b7fe243115095799e27f07d421d
 **********************************************************************************************************************************

 Memory per process:       100 MW
 Total memory per node:    600 MW

 GA preallocation disabled
 GA check disabled

 Variable memory set to 100.0 MW

 ZCENTRE=MASS


 Geometry recognized as XYZ



 Using masses of most abundant isotopes

 **********************************************************************************************************************************
 SETTING BASIS          =    6-311G(D,P)


 Recomputing integrals since basis changed


 Using spherical harmonics

 Library entry C      S 6-311G               selected for orbital group  1
 Library entry C      P 6-311G               selected for orbital group  1
 Library entry C      D 6-311G*              selected for orbital group  1
 Library entry O      S 6-311G               selected for orbital group  2
 Library entry O      P 6-311G               selected for orbital group  2
 Library entry O      D 6-311G*              selected for orbital group  2
 Library entry H      S 6-311G               selected for orbital group  3
 Library entry H      P 6-311G**             selected for orbital group  3


 PROGRAM * SEWARD (Integral evaluation for generally contracted gaussian basis sets)     Author: Roland Lindh, 1990

 Geometry written to block  1 of record 700

 Orientation using atomic masses  
 Molecule type: Asymmetric top
 Symmetry elements: X
 Rotational constants:      23.8477325     24.7402811    127.2848845 GHz

 Point group  Cs  



 ATOMIC COORDINATES

 NR  ATOM    CHARGE       X              Y              Z

   1  C       6.00    0.000000000    0.024270140    1.377887847
   2  O       8.00    0.000000000   -0.121476218   -1.307126296
   3  H       1.00    0.000000000   -1.917940548    2.061278185
   4  H       1.00    0.000000000    1.595511656   -1.948978164
   5  H       1.00    1.685204846    0.980681864    2.113231230
   6  H       1.00   -1.685204846    0.980681864    2.113231230

 Bond lengths in Bohr (Angstrom)

 1-2  2.688966892  1-3  2.058932906  1-5  2.072527117  1-6  2.072527117  2-4  1.833036056
     ( 1.422940000)     ( 1.089540373)     ( 1.096734119)     ( 1.096734119)     ( 0.970000908)

 Bond angles

  1-2-4  107.38992044   2-1-3  106.27799177   2-1-5  112.29008975   2-1-6  112.29008975

  3-1-5  108.51452596   3-1-6  108.51452596   5-1-6  108.80298907

 NUCLEAR CHARGE:                   18
 NUMBER OF PRIMITIVE AOS:          96
 NUMBER OF SYMMETRY AOS:           94
 NUMBER OF CONTRACTIONS:           60   (   42A'  +   18A"  )
 NUMBER OF INNER CORE ORBITALS:     0   (    0A'  +    0A"  )
 NUMBER OF OUTER CORE ORBITALS:     2   (    2A'  +    0A"  )
 NUMBER OF VALENCE ORBITALS:       12   (    9A'  +    3A"  )


 NUCLEAR REPULSION ENERGY   40.20784357

 Eigenvalues of metric

         1 0.901E-02 0.211E-01 0.232E-01 0.401E-01 0.460E-01 0.582E-01 0.868E-01 0.952E-01
         2 0.237E-01 0.446E-01 0.111E+00 0.200E+00 0.338E+00 0.388E+00 0.439E+00 0.581E+00


 Contracted 2-electron integrals neglected if value below      1.0D-11
 AO integral compression algorithm  1   Integral accuracy      1.0D-11

     6.029 MB (compressed) written to integral file ( 61.8%)

     Node minimum: 0.786 MB, node maximum: 1.311 MB


 NUMBER OF SORTED TWO-ELECTRON INTEGRALS:     146238.     BUFFER LENGTH:  32768
 NUMBER OF SEGMENTS:   1  SEGMENT LENGTH:     146238      RECORD LENGTH: 524288

 Memory used in sort:       0.70 MW

 SORT1 READ     1099078. AND WROTE      143691. INTEGRALS IN      1 RECORDS. CPU TIME:     0.03 SEC, REAL TIME:     0.03 SEC
 SORT2 READ      871536. AND WROTE      886101. INTEGRALS IN     24 RECORDS. CPU TIME:     0.01 SEC, REAL TIME:     0.02 SEC

 Node minimum:      145882.  Node maximum:      149487. integrals

 OPERATOR DM      FOR CENTER  0  COORDINATES:    0.000000    0.000000    0.000000


 **********************************************************************************************************************************
 DATASETS  * FILE   NREC   LENGTH (MB)   RECORD NAMES
              1      18       29.00       500      610      700      900      950      970     1000      129      960     1100   
                                          VAR    BASINP    GEOM    SYMINP    ZMAT    AOBASIS   BASIS     P2S    ABASIS      S 
                                         1400     1410     1200     1210     1080     1600     1650     1700   
                                           T        V       H0       H01     AOSYM     SMH    MOLCAS    OPER   

 PROGRAMS   *        TOTAL       INT
 CPU TIMES  *         0.53      0.30
 REAL TIME  *         0.62 SEC
 DISK USED  *        29.41 MB (local),      204.47 MB (total)
 GA USED    *         0.00 MB       (max)       0.00 MB       (current)
 **********************************************************************************************************************************


 Program * Restricted Hartree-Fock


 Generating basis MINAO
  Atom=C        basis=MINAO
  Atom=O        basis=MINAO
  Atom=H        basis=MINAO
 Number of basis functions:      14

 Orbital guess generated from atomic densities.

 Initial occupancy:   7   2

 NELEC=   18   SYM=1   MS2= 0   THRE=1.0D-08   THRD=1.0D-06   THRG=1.0D-06  HFMA2=F  DIIS_START=2   DIIS_MAX=10   DIIS_INCORE=F

 Level shifts:    0.00 (CLOSED)    0.00 (OPEN)    0.30 (GAP_MIN)

 ITER           ETOT              DE          GRAD        DDIFF     DIIS  NEXP   TIME(IT)  TIME(TOT)  DIAG
   1     -115.03768880    -115.03768880     0.00D+00     0.72D-01     0     0       0.00      0.02    start
   2     -115.06682583      -0.02913703     0.12D-01     0.88D-02     1     0       0.00      0.02    diag
   3     -115.07369581      -0.00686998     0.61D-02     0.29D-02     2     0       0.01      0.03    diag
   4     -115.07419450      -0.00049869     0.12D-02     0.96D-03     3     0       0.00      0.03    diag
   5     -115.07422470      -0.00003019     0.24D-03     0.30D-03     4     0       0.00      0.03    diag
   6     -115.07422578      -0.00000108     0.42D-04     0.60D-04     5     0       0.00      0.03    diag
   7     -115.07422583      -0.00000005     0.94D-05     0.93D-05     6     0       0.01      0.04    diag
   8     -115.07422583      -0.00000001     0.32D-05     0.32D-05     7     0       0.00      0.04    fixocc
   9     -115.07422583      -0.00000000     0.66D-06     0.90D-06     8     0       0.00      0.04    diag
  10     -115.07422583      -0.00000000     0.12D-06     0.13D-06     0     0       0.00      0.04    diag/orth

 Final occupancy:   7   2

 !RHF STATE 1.1 Energy               -115.074225832542
  RHF One-electron energy            -236.727415248271
  RHF Two-electron energy              81.445345848674
  RHF Kinetic energy                  114.976245010606
  RHF Nuclear energy                   40.207843567055
  RHF Virial quotient                  -1.000852183179

 !RHF STATE 1.1 Dipole moment           0.00000000     0.62487242     0.41980504
 Dipole moment /Debye                   0.00000000     1.58826728     1.06703797

 Orbital energies:

           1.1          2.1          3.1          4.1          5.1          6.1          7.1          8.1          9.1
    -20.545881   -11.270593    -1.348340    -0.921337    -0.683635    -0.586572    -0.499795     0.153263     0.187477

           1.2          2.2          3.2          4.2
     -0.615594    -0.446618     0.225300     0.478831


 HOMO      2.2    -0.446618 =     -12.1531eV
 LUMO      8.1     0.153263 =       4.1705eV
 LUMO-HOMO         0.599881 =      16.3236eV

 Orbitals saved in record  2100.2


 **********************************************************************************************************************************
 DATASETS  * FILE   NREC   LENGTH (MB)   RECORD NAMES
              1      18       29.00       500      610      700      900      950      970     1000      129      960     1100   
                                          VAR    BASINP    GEOM    SYMINP    ZMAT    AOBASIS   BASIS     P2S    ABASIS      S 
                                         1400     1410     1200     1210     1080     1600     1650     1700   
                                           T        V       H0       H01     AOSYM     SMH    MOLCAS    OPER   

              2       4        0.50       700     1000      520     2100   
                                         GEOM     BASIS   MCVARS     RHF  

 PROGRAMS   *        TOTAL    HF-SCF       INT
 CPU TIMES  *         0.57      0.04      0.30
 REAL TIME  *         0.67 SEC
 DISK USED  *        29.71 MB (local),      206.31 MB (total)
 GA USED    *         0.00 MB       (max)       0.00 MB       (current)
 **********************************************************************************************************************************


 PROGRAM * OPT (Geometry optimization)     Authors: F. Eckert and H.-J. Werner


 BFGS update of hessian

 *** Long output written to logfile /home/lme/Bachelor_Thesis_Lukas_Meinschad/Rechnungen/methanol_ohne/methanol.log ***


 Geometry optimization using default procedure for command HF-SCF

 Geometry written to block  1 of record 700

 PQS Optimization using delocalized internal coordinates

 Point group cs. Number of degrees of freedom:    8

 ITER.   ENERGY(OLD)    ENERGY(NEW)      DE          GRADMAX     GRADNORM    GRADRMS     STEPMAX     STEPLEN     STEPRMS   CPU-time
   1  -115.07422583  -115.07577255    -0.00154672  0.02966170  0.03794553  0.01341577  0.06078192  0.08845352  0.03127304      0.29
   2  -115.07577255  -115.07580847    -0.00003592  0.00302555  0.00387126  0.00136870  0.01348802  0.02142302  0.00757418      0.58
   3  -115.07580847  -115.07581192    -0.00000345  0.00097041  0.00151028  0.00053396  0.00329857  0.00550605  0.00194668      0.86
   4  -115.07581192  -115.07581201    -0.00000009  0.00020116  0.00030558  0.00010804  0.00060869  0.00091502  0.00032351      1.14

 END OF GEOMETRY OPTIMIZATION.

 Geometry written to block  1 of record 700

 Recomputing wavefunction for reoriented structure

 Current geometry (xyz format, in Angstrom)

    6
 HF-SCF000/6-311G(D,P)  ENERGY=-115.07581201
 C           0.0000000000        0.0130158700        0.7171283826
 O           0.0000000000       -0.0629908932       -0.6799899526
 H           0.0000000000       -1.0005150325        1.0957706642
 H           0.0000000000        0.8053034530       -1.0389047331
 H           0.8845932964        0.5199723846        1.0981701159
 H          -0.8845932964        0.5199723846        1.0981701159

 **********************************************************************************************************************************


 **********************************************************************************************************************************
 DATASETS  * FILE   NREC   LENGTH (MB)   RECORD NAMES
              1      18       29.00       500      610      700      900      950      970     1000      129      960     1100   
                                          VAR    BASINP    GEOM    SYMINP    ZMAT    AOBASIS   BASIS     P2S    ABASIS      S 
                                         1400     1410     1200     1210     1080     1600     1650     1700   
                                           T        V       H0       H01     AOSYM     SMH    MOLCAS    OPER   

              2       4        0.50       700     1000      520     2100   
                                         GEOM     BASIS   MCVARS     RHF  

 PROGRAMS   *        TOTAL      OPTG    HF-SCF       INT
 CPU TIMES  *         1.90      1.33      0.04      0.30
 REAL TIME  *         2.25 SEC
 DISK USED  *        29.71 MB (local),      206.33 MB (total)
 SF USED    *         0.03 MB
 GA USED    *         0.00 MB       (max)       0.00 MB       (current)
 **********************************************************************************************************************************


 PROGRAM * HESSIAN

 PROGRAM * MCKINLEY (Hessian of the energy)     Author: A. Bernhardsson, R. Lindh

 Orbitals from record         2100.2

 Number of closed-shell orbitals:  9 (  7  2 )
 Number of occupied orbitals:      9 (  7  2 )

 Number of electrons= 18     Singlet     Space symmetry=1      Wavefunction type: CLOSED          


 McKinley needed      0.65 seconds of CPU time

 Entering CPHF calculation

 CPHF needed 139 iterations for 18 perturbations.  Total CPU time:    0.20 sec


 HF-SCF hessian saved to record  5300.2

 PROGRAM * FREQUENCIES (Calculation of harmonic vibrational spectra for HF-SCF)


 Permanent Dipole Moment [debye]
     1-   3    0.000000    0.000000    0.000000

 Dipole Moment Norm    0.0000000 [debye]

 Dipole Moment Derivatives [debye/ang]
              1             2             3             4             5             6             7             8
    1    0.00000000    0.00000000    0.00000000    0.00000000    0.00000000    0.00000000    0.00000000    0.00000000
    2    0.00000000    0.00000000    0.00000000    0.00000000    0.00000000    0.00000000    0.00000000    0.00000000
    3    0.00000000    0.00000000    0.00000000    0.00000000    0.00000000    0.00000000    0.00000000    0.00000000
              9            10            11            12            13            14            15            16
    1    0.00000000    0.00000000    0.00000000    0.00000000    0.00000000    0.00000000    0.00000000    0.00000000
    2    0.00000000    0.00000000    0.00000000    0.00000000    0.00000000    0.00000000    0.00000000    0.00000000
    3    0.00000000    0.00000000    0.00000000    0.00000000    0.00000000    0.00000000    0.00000000    0.00000000
             17            18
    1    0.00000000    0.00000000
    2    0.00000000    0.00000000
    3    0.00000000    0.00000000

 Projecting out rotations and translations

 Force Constants (Second Derivatives of the Energy) in [a.u.]
                             CX1         CY1         CZ1         OX2         OY2     
           CX1           0.6245983
           CY1          -0.0000000   0.6768764
           CZ1          -0.0000000  -0.0170542   0.5693810
           OX2          -0.0729863  -0.0000000   0.0000000   0.0533383
           OY2          -0.0000000  -0.1146419   0.0091249   0.0000000   0.6472655
           OZ2          -0.0000000  -0.0414162  -0.3007248  -0.0000000  -0.1695302
           HX3          -0.0613254   0.0000000   0.0000000   0.0025316  -0.0000000
           HY3           0.0000000  -0.3205166   0.0899097   0.0000000   0.0080066
           HZ3           0.0000000   0.0735808  -0.0828023  -0.0000000   0.0458545
           HX4           0.0000858   0.0000000  -0.0000000  -0.0034066   0.0000000
           HY4          -0.0000000   0.0054501  -0.0077638   0.0000000  -0.5506292
           HZ4          -0.0000000   0.0495707  -0.0207164   0.0000000   0.1576257
           HX5          -0.2451862  -0.1033918  -0.0657882   0.0102615   0.0032127
           HY5          -0.1022091  -0.1235840  -0.0371083   0.0006135   0.0049995
           HZ5          -0.0611879  -0.0323405  -0.0825688  -0.0337778  -0.0215375
           HX6          -0.2451862   0.1033918   0.0657882   0.0102615  -0.0032127
           HY6           0.1022091  -0.1235840  -0.0371083  -0.0006135   0.0049995
           HZ6           0.0611879  -0.0323405  -0.0825688   0.0337778  -0.0215375
                             OZ2         HX3         HY3         HZ3         HX4     
           OZ2           0.5230666
           HX3           0.0000000   0.0547310
           HY3           0.0017611   0.0000000   0.3381491
           HZ3          -0.0273626   0.0000000  -0.0976432   0.1065725
           HX4           0.0000000   0.0004341   0.0000000   0.0000000   0.0033364
           HY4           0.2171057  -0.0000000   0.0026855  -0.0013005   0.0000000
           HZ4          -0.1257227  -0.0000000  -0.0018072  -0.0085758   0.0000000
           HX5          -0.0046650   0.0018143  -0.0000296   0.0013821  -0.0002249
           HY5          -0.0039602  -0.0302289  -0.0141623  -0.0102458   0.0012629
           HZ5          -0.0346283   0.0100650   0.0038898   0.0060841  -0.0006254
           HX6           0.0046650   0.0018143   0.0000296  -0.0013821  -0.0002249
           HY6          -0.0039602   0.0302289  -0.0141623  -0.0102458  -0.0012629
           HZ6          -0.0346283  -0.0100650   0.0038898   0.0060841   0.0006254
                             HY4         HZ4         HX5         HY5         HZ5     
           HY4           0.5410719
           HZ4          -0.2055019   0.1513033
           HX5          -0.0000058  -0.0009586   0.2577975
           HY5           0.0007109   0.0000563   0.1153880   0.1212868
           HZ5          -0.0012698   0.0018558   0.0777779   0.0455413   0.1024979
           HX6           0.0000058   0.0009586  -0.0244622   0.0151735   0.0077482
           HY6           0.0007109   0.0000563  -0.0151735   0.0107492   0.0057167
           HZ6          -0.0012698   0.0018558  -0.0077482   0.0057167   0.0067592
                             HX6         HY6         HZ6     
           HX6           0.2577975
           HY6          -0.1153880   0.1212868
           HZ6          -0.0777779   0.0455413   0.1024979


 Atomic Masses
     1-   6   12.000000   15.994910    1.007825    1.007825    1.007825    1.007825

 Mass weighted Second Derivative Matrix
                             CX1         CY1         CZ1         OX2         OY2     
           CX1           0.0520499
           CY1          -0.0000000   0.0564064
           CZ1          -0.0000000  -0.0014212   0.0474484
           OX2          -0.0052682  -0.0000000   0.0000000   0.0033347
           OY2          -0.0000000  -0.0082749   0.0006586   0.0000000   0.0404670
           OZ2          -0.0000000  -0.0029894  -0.0217064  -0.0000000  -0.0105990
           HX3          -0.0176342   0.0000000   0.0000000   0.0006305  -0.0000000
           HY3           0.0000000  -0.0921653   0.0258537   0.0000000   0.0019942
           HZ3           0.0000000   0.0211583  -0.0238100  -0.0000000   0.0114209
           HX4           0.0000247   0.0000000  -0.0000000  -0.0008485   0.0000000
           HY4          -0.0000000   0.0015672  -0.0022325   0.0000000  -0.1371437
           HZ4          -0.0000000   0.0142542  -0.0059571   0.0000000   0.0392594
           HX5          -0.0705039  -0.0297306  -0.0189175   0.0025558   0.0008002
           HY5          -0.0293904  -0.0355369  -0.0106706   0.0001528   0.0012452
           HZ5          -0.0175947  -0.0092996  -0.0237428  -0.0084129  -0.0053643
           HX6          -0.0705039   0.0297306   0.0189175   0.0025558  -0.0008002
           HY6           0.0293904  -0.0355369  -0.0106706  -0.0001528   0.0012452
           HZ6           0.0175947  -0.0092996  -0.0237428   0.0084129  -0.0053643
                             OZ2         HX3         HY3         HZ3         HX4     
           OZ2           0.0327021
           HX3           0.0000000   0.0543061
           HY3           0.0004386   0.0000000   0.3355236
           HZ3          -0.0068151   0.0000000  -0.0968851   0.1057451
           HX4           0.0000000   0.0004308   0.0000000   0.0000000   0.0033105
           HY4           0.0540739  -0.0000000   0.0026647  -0.0012904   0.0000000
           HZ4          -0.0313134  -0.0000000  -0.0017932  -0.0085092   0.0000000
           HX5          -0.0011619   0.0018002  -0.0000294   0.0013713  -0.0002232
           HY5          -0.0009864  -0.0299942  -0.0140524  -0.0101663   0.0012531
           HZ5          -0.0086248   0.0099869   0.0038596   0.0060369  -0.0006205
           HX6           0.0011619   0.0018002   0.0000294  -0.0013713  -0.0002232
           HY6          -0.0009864   0.0299942  -0.0140524  -0.0101663  -0.0012531
           HZ6          -0.0086248  -0.0099869   0.0038596   0.0060369   0.0006205
                             HY4         HZ4         HX5         HY5         HZ5     
           HY4           0.5368709
           HZ4          -0.2039063   0.1501285
           HX5          -0.0000057  -0.0009512   0.2557959
           HY5           0.0007053   0.0000559   0.1144921   0.1203451
           HZ5          -0.0012599   0.0018414   0.0771740   0.0451878   0.1017021
           HX6           0.0000057   0.0009512  -0.0242723   0.0150557   0.0076881
           HY6           0.0007053   0.0000559  -0.0150557   0.0106658   0.0056723
           HZ6          -0.0012599   0.0018414  -0.0076881   0.0056723   0.0067067
                             HX6         HY6         HZ6     
           HX6           0.2557959
           HY6          -0.1144921   0.1203451
           HZ6          -0.0771740   0.0451878   0.1017021


 Mass Weighted 2nd Derivative Matrix Eigenvalues
     1-  10    0.000000    0.000000    0.000000    0.000000    0.000000    0.000000    0.004433    0.050913    0.052656    0.061727
    11-  18    0.083900    0.098744    0.099183    0.100591    0.373235    0.383857    0.401407    0.663333

 Mass Weighted 2nd Derivative Matrix Eigenvectors
              1             2             3             4             5             6             7             8
    1    0.01156377    0.01440283    0.00954578   -0.02417381    0.10754780    0.82047098    0.01496548    0.00000000
    2    0.07263130   -0.05715251    0.07658859   -0.13318280    0.79417425   -0.10893628    0.00000000   -0.23815690
    3   -0.15036255    0.37106149    0.07912606   -0.45323718   -0.05167239   -0.01189575    0.00000000   -0.01223918
    4   -0.03102934    0.61416792    0.40550781    0.56812555    0.11633705    0.09574097   -0.25135368    0.00000000
    5    0.25757036   -0.31482448    0.80469003   -0.21222802   -0.02962931   -0.00983497    0.00000000    0.00991033
    6   -0.18304670    0.44193431    0.05238563   -0.52008925   -0.00816374   -0.02004093    0.00000000   -0.13331735
    7    0.48842945    0.16407826   -0.10268718   -0.05350104    0.00575110    0.27471021    0.28185931    0.00000000
    8    0.00923088    0.00036560   -0.02653178   -0.03461926    0.29454470   -0.03945692    0.00000000    0.13288616
    9   -0.07520884    0.15284797   -0.10749999   -0.12070262    0.15738416   -0.02455874    0.00000000    0.53181443
   10   -0.42450759    0.02051855    0.19472158    0.18615008    0.05097543   -0.01285512    0.86249628    0.00000000
   11    0.07585645   -0.09507258    0.24817880   -0.05704286   -0.06847373    0.00500727    0.00000000    0.25977543
   12   -0.01884726    0.07211249    0.12489012   -0.13967176   -0.14970955    0.01305553    0.00000000    0.57842936
   13   -0.22026489   -0.13103068    0.01272357   -0.04501417    0.04390430    0.30593907   -0.09732561   -0.03651558
   14    0.42150864    0.17202702   -0.09408926   -0.03968150    0.27275593   -0.05746328    0.21201904    0.19482415
   15   -0.05723918    0.17050458    0.15452619   -0.04166860   -0.10122341   -0.12724279   -0.04692633   -0.26845015
   16   -0.22026489   -0.13103068    0.01272357   -0.04501417    0.04390430    0.30593907   -0.09732561    0.03651558
   17   -0.40319666   -0.17108126    0.04040813   -0.02950662    0.31714955   -0.02155051   -0.21201904    0.19482415
   18    0.00173367   -0.00076613    0.02181574   -0.23168042   -0.10115007    0.14146724    0.04692633   -0.26845015
              9            10            11            12            13            14            15            16
    1    0.00000000    0.42212087    0.00000000    0.00000000   -0.19738248    0.00000000    0.00000000   -0.31124643
    2   -0.03109606    0.00000000    0.38017986    0.07097088    0.00000000    0.14389984   -0.10464224    0.00000000
    3   -0.67305390    0.00000000   -0.03970999   -0.34634934    0.00000000    0.16413241   -0.14193676    0.00000000
    4    0.00000000   -0.21811253    0.00000000    0.00000000   -0.03428284    0.00000000    0.00000000    0.00200455
    5    0.03216910    0.00000000   -0.29270439    0.02154647    0.00000000    0.06607756    0.00078934    0.00000000
    6    0.67443014    0.00000000   -0.11498874   -0.02868771    0.00000000    0.02963930   -0.00809799    0.00000000
    7    0.00000000   -0.25057192    0.00000000    0.00000000    0.70911580    0.00000000    0.00000000   -0.02308737
    8    0.00635659    0.00000000   -0.02153884    0.25919385    0.00000000    0.06172264   -0.25527087    0.00000000
    9   -0.14314469    0.00000000   -0.37833079    0.58926067    0.00000000    0.14478765    0.08952251    0.00000000
   10    0.00000000   -0.00570194    0.00000000    0.00000000   -0.01035983    0.00000000    0.00000000    0.00072638
   11   -0.02256080    0.00000000    0.22149608   -0.00582798    0.00000000   -0.02590528    0.00146537    0.00000000
   12    0.11381389    0.00000000    0.66075580   -0.03732623    0.00000000   -0.09102365   -0.00527514    0.00000000
   13   -0.00318392   -0.16569482    0.09240000   -0.01436817    0.05945683    0.40275128    0.55348370    0.54418536
   14   -0.00232518    0.08336505   -0.17286916   -0.29204847   -0.37093542   -0.39780117    0.30587114    0.32507873
   15   -0.16750541    0.56683908    0.15634618    0.37873719    0.29551302   -0.36910052    0.21889216    0.22244136
   16    0.00318392   -0.16569482   -0.09240000    0.01436817    0.05945683   -0.40275128   -0.55348370    0.54418536
   17   -0.00232518   -0.08336505   -0.17286916   -0.29204847    0.37093542   -0.39780117    0.30587114   -0.32507873
   18   -0.16750541   -0.56683908    0.15634618    0.37873719   -0.29551302   -0.36910052    0.21889216   -0.22244136
             17            18
    1    0.00000000    0.00000000
    2   -0.29381057   -0.00582152
    3    0.05856522   -0.00256530
    4    0.00000000    0.00000000
    5    0.00593452   -0.22209545
    6   -0.00004592    0.09931566
    7    0.00000000    0.00000000
    8    0.86906151    0.01065229
    9   -0.31114154   -0.00409104
   10    0.00000000    0.00000000
   11   -0.01303287    0.89314996
   12   -0.00246978   -0.37803518
   13    0.14614813    0.00043789
   14    0.06708008    0.00053558
   15    0.05585376   -0.00233816
   16   -0.14614813   -0.00043789
   17    0.06708008    0.00053558
   18    0.05585376   -0.00233816

   Low Vibration      Wavenumber
        Nr             [1/cm] 
        1                0.00
        2                0.00
        3                0.00
        4                0.00
        5                0.00
        6                0.00

     Vibration        Wavenumber
        Nr             [1/cm] 
        1              342.25
        2             1159.90
        3             1179.58
        4             1277.15
        5             1488.97
        6             1615.32
        7             1618.91
        8             1630.36
        9             3140.47
       10             3184.85
       11             3256.84
       12             4186.68

 FREQUENCIES * CALCULATION OF NORMAL MODES FOR HF-SCF


 Atomic Coordinates

  Nr  Atom  Charge       X              Y              Z

   1   C     6.00    0.000000000    0.024596430    1.355176239
   2   O     8.00    0.000000000   -0.119035536   -1.284994778
   3   H     1.00    0.000000000   -1.890699395    2.070706451
   4   H     1.00    0.000000000    1.521802973   -1.963245415
   5   H     1.00    1.671639062    0.982605399    2.075240757
   6   H     1.00   -1.671639062    0.982605399    2.075240757

 Gradient norm at reference geometry: 0.29646D-03

 Normal Modes

                              1 A``       2 A`        3 A`        4 A``       5 A`       6 A`        7 A``       8 A`        9 A`       10 A``     11 A`       12 A`  
 Wavenumbers [cm-1]          342.25     1159.90     1179.58     1277.15     1488.97    1615.32     1618.91     1630.36     3140.47     3184.85    3256.84     4186.68
 Intensities [km/mol]          0.00        0.00        0.00        0.00        0.00       0.00        0.00        0.00        0.00        0.00       0.00        0.00
 Intensities [relative]        0.00        0.00        0.00        0.00        0.00       0.00        0.00        0.00        0.00        0.00       0.00        0.00
           CX1              0.00432     0.00000     0.00000     0.12186     0.00000    0.00000    -0.05698    -0.00000     0.00000    -0.08985   -0.00000     0.00000
           CY1             -0.00000    -0.06875    -0.00898     0.00000     0.10975    0.02049     0.00000     0.04154    -0.03021     0.00000   -0.08482    -0.00168
           CZ1             -0.00000    -0.00353    -0.19429     0.00000    -0.01146   -0.09998    -0.00000     0.04738    -0.04097    -0.00000    0.01691    -0.00074
           OX2             -0.06285     0.00000    -0.00000    -0.05454    -0.00000    0.00000    -0.00857     0.00000    -0.00000     0.00050    0.00000     0.00000
           OY2              0.00000     0.00248     0.00804    -0.00000    -0.07319    0.00539     0.00000     0.01652     0.00020    -0.00000    0.00148    -0.05553
           OZ2             -0.00000    -0.03333     0.16863    -0.00000    -0.02875   -0.00717    -0.00000     0.00741    -0.00202    -0.00000   -0.00001     0.02483
           HX3              0.28076     0.00000    -0.00000    -0.24960    -0.00000   -0.00000     0.70636     0.00000     0.00000    -0.02300    0.00000     0.00000
           HY3             -0.00000     0.13237     0.00633    -0.00000    -0.02146    0.25819     0.00000     0.06148    -0.25428    -0.00000    0.86568     0.01061
           HZ3             -0.00000     0.52975    -0.14259     0.00000    -0.37686    0.58697     0.00000     0.14422     0.08917     0.00000   -0.30993    -0.00408
           HX4              0.85914     0.00000     0.00000    -0.00568    -0.00000    0.00000    -0.01032     0.00000     0.00000     0.00072   -0.00000     0.00000
           HY4              0.00000     0.25876    -0.02247    -0.00000     0.22063   -0.00581     0.00000    -0.02580     0.00146     0.00000   -0.01298     0.88968
           HZ4              0.00000     0.57618     0.11337    -0.00000     0.65819   -0.03718    -0.00000    -0.09067    -0.00525    -0.00000   -0.00246    -0.37656
           HX5             -0.09695    -0.03637    -0.00317    -0.16505     0.09204   -0.01431     0.05923     0.40118     0.55133     0.54207    0.14558     0.00044
           HY5              0.21119     0.19407    -0.00232     0.08304    -0.17220   -0.29091    -0.36949    -0.39625     0.30468     0.32381    0.06682     0.00053
           HZ5             -0.04674    -0.26741    -0.16685     0.56463     0.15574    0.37726     0.29436    -0.36766     0.21804     0.22158    0.05564    -0.00233
           HX6             -0.09695     0.03637     0.00317    -0.16505    -0.09204    0.01431     0.05923    -0.40118    -0.55133     0.54207   -0.14558    -0.00044
           HY6             -0.21119     0.19407    -0.00232    -0.08304    -0.17220   -0.29091     0.36949    -0.39625     0.30468    -0.32381    0.06682     0.00053
           HZ6              0.04674    -0.26741    -0.16685    -0.56463     0.15574    0.37726    -0.29436    -0.36766     0.21804    -0.22158    0.05564    -0.00233


 Normal Modes of low/zero frequencies

                                  1           2           3           4           5
 Wavenumbers [cm-1]            0.00        0.00        0.00        0.00        0.00
 Intensities [km/mol]          0.00        0.00        0.00        0.00        0.00
 Intensities [relative]        0.00        0.00        0.00        0.00        0.00
           CX1              0.00334     0.00416     0.00276    -0.00698     0.03105
           CY1              0.02097    -0.01650     0.02211    -0.03845     0.22926
           CZ1             -0.04341     0.10712     0.02284    -0.13084    -0.01492
           OX2             -0.00776     0.15357     0.10139     0.14205     0.02909
           OY2              0.06440    -0.07872     0.20120    -0.05307    -0.00741
           OZ2             -0.04577     0.11050     0.01310    -0.13004    -0.00204
           HX3              0.48653     0.16344    -0.10229    -0.05329     0.00573
           HY3              0.00919     0.00036    -0.02643    -0.03448     0.29340
           HZ3             -0.07492     0.15225    -0.10708    -0.12023     0.15677
           HX4             -0.42286     0.02044     0.19396     0.18543     0.05078
           HY4              0.07556    -0.09470     0.24721    -0.05682    -0.06821
           HZ4             -0.01877     0.07183     0.12440    -0.13913    -0.14913
           HX5             -0.21941    -0.13052     0.01267    -0.04484     0.04373
           HY5              0.41987     0.17136    -0.09372    -0.03953     0.27169
           HZ5             -0.05702     0.16984     0.15393    -0.04151    -0.10083
           HX6             -0.21941    -0.13052     0.01267    -0.04484     0.04373
           HY6             -0.40163    -0.17042     0.04025    -0.02939     0.31592
           HZ6              0.00173    -0.00076     0.02173    -0.23078    -0.10076

                                  6
 Wavenumbers [cm-1]            0.00
 Intensities [km/mol]          0.00
 Intensities [relative]        0.00
           CX1              0.23685
           CY1             -0.03145
           CZ1             -0.00343
           OX2              0.02394
           OY2             -0.00246
           OZ2             -0.00501
           HX3              0.27364
           HY3             -0.03930
           HZ3             -0.02446
           HX4             -0.01281
           HY4              0.00499
           HZ4              0.01300
           HX5              0.30475
           HY5             -0.05724
           HZ5             -0.12675
           HX6              0.30475
           HY6             -0.02147
           HZ6              0.14092


 Frequencies dumped to record   5400.2
 Frequency information read from record  5400.2

 Zero point energy:  0.05486123 [H]    12040.65 [1/CM]      144.04 [KJ/MOL]


 **********************************************************************************************************************************
 DATASETS  * FILE   NREC   LENGTH (MB)   RECORD NAMES
              1      18       29.00       500      610      700      900      950      970     1000      129      960     1100   
                                          VAR    BASINP    GEOM    SYMINP    ZMAT    AOBASIS   BASIS     P2S    ABASIS      S 
                                         1400     1410     1200     1210     1080     1600     1650     1700   
                                           T        V       H0       H01     AOSYM     SMH    MOLCAS    OPER   

              2       7        0.53       700     1000      520     2100     5300     5450     5400   
                                         GEOM     BASIS   MCVARS     RHF     HESS     NMOD     FREQ   

              4       5        0.47      4100     4000     4200     4300     4400   

 PROGRAMS   *        TOTAL      FREQ      OPTG    HF-SCF       INT
 CPU TIMES  *         2.77      0.87      1.33      0.04      0.30
 REAL TIME  *         3.17 SEC
 DISK USED  *        29.71 MB (local),      206.33 MB (total)
 SF USED    *         0.47 MB
 GA USED    *         0.00 MB       (max)       0.00 MB       (current)
 **********************************************************************************************************************************

 Dump information in style MOLDEN to ch3oh.molden                                                                    

 Molecular orbitals read from record     2100.2  Type=RHF/CANONICAL  
 Occupation numbers read from record     2100.2  Type=RHF/RHF  
 Orbital energies read from record       2100.2  Type=RHF/CANONICAL  
 Redundancy group numbers read from rec  2100.2  Type=RHF/RHF  

 DUMP ORBITAL  1.1 AS ORBITAL    1  occ=    2.0000  eig=  -20.5412  GROUP=   2
 DUMP ORBITAL  2.1 AS ORBITAL    2  occ=    2.0000  eig=  -11.2656  GROUP=   2
 DUMP ORBITAL  3.1 AS ORBITAL    3  occ=    2.0000  eig=   -1.3621  GROUP=   2
 DUMP ORBITAL  4.1 AS ORBITAL    4  occ=    2.0000  eig=   -0.9267  GROUP=   2
 DUMP ORBITAL  5.1 AS ORBITAL    5  occ=    2.0000  eig=   -0.6945  GROUP=   2
 DUMP ORBITAL  1.2 AS ORBITAL    6  occ=    2.0000  eig=   -0.6209  GROUP=   2
 DUMP ORBITAL  6.1 AS ORBITAL    7  occ=    2.0000  eig=   -0.5957  GROUP=   2
 DUMP ORBITAL  7.1 AS ORBITAL    8  occ=    2.0000  eig=   -0.4979  GROUP=   2
 DUMP ORBITAL  2.2 AS ORBITAL    9  occ=    2.0000  eig=   -0.4449  GROUP=   2

 Total electronic charge:      18.000000
 Frequency information read from record  5400.2

 **********************************************************************************************************************************

 HF/6-311G(D,P)//HF/6-311G(D,P) energy=   -115.075812006184

    OPTG(HF-SCF)          HF-SCF
   -115.07581201   -115.07422583
 **********************************************************************************************************************************
 Molpro calculation terminated
