 Entering Gaussian System, Link 0=g16
 Input=/home/lme/overlap_integral_gaussian/methanol_gaussian.gjf
 Output=/home/lme/overlap_integral_gaussian/methanol_gaussian.log
 Initial command:
 /usr/local/g16-c.02/g16/l1.exe "/scratch/lme/Gau-2042286.inp" -scrdir="/scratch/lme/"
 Entering Link 1 = /usr/local/g16-c.02/g16/l1.exe PID=   2042301.
  
 Copyright (c) 1988-2021, Gaussian, Inc.  All Rights Reserved.
  
 This is part of the Gaussian(R) 16 program.  It is based on
 the Gaussian(R) 09 system (copyright 2009, Gaussian, Inc.),
 the Gaussian(R) 03 system (copyright 2003, Gaussian, Inc.),
 the Gaussian(R) 98 system (copyright 1998, Gaussian, Inc.),
 the Gaussian(R) 94 system (copyright 1995, Gaussian, Inc.),
 the Gaussian 92(TM) system (copyright 1992, Gaussian, Inc.),
 the Gaussian 90(TM) system (copyright 1990, Gaussian, Inc.),
 the Gaussian 88(TM) system (copyright 1988, Gaussian, Inc.),
 the Gaussian 86(TM) system (copyright 1986, Carnegie Mellon
 University), and the Gaussian 82(TM) system (copyright 1983,
 Carnegie Mellon University). Gaussian is a federally registered
 trademark of Gaussian, Inc.
  
 This software contains proprietary and confidential information,
 including trade secrets, belonging to Gaussian, Inc.
  
 This software is provided under written license and may be
 used, copied, transmitted, or stored only in accord with that
 written license.
  
 The following legend is applicable only to US Government
 contracts under FAR:
  
                    RESTRICTED RIGHTS LEGEND
  
 Use, reproduction and disclosure by the US Government is
 subject to restrictions as set forth in subparagraphs (a)
 and (c) of the Commercial Computer Software - Restricted
 Rights clause in FAR 52.227-19.
  
 Gaussian, Inc.
 340 Quinnipiac St., Bldg. 40, Wallingford CT 06492
  
  
 ---------------------------------------------------------------
 Warning -- This program may not be used in any manner that
 competes with the business of Gaussian, Inc. or will provide
 assistance to any competitor of Gaussian, Inc.  The licensee
 of this program is prohibited from giving any competitor of
 Gaussian, Inc. access to this program.  By using this program,
 the user acknowledges that Gaussian, Inc. is engaged in the
 business of creating and licensing software in the field of
 computational chemistry and represents and warrants to the
 licensee that it is not a competitor of Gaussian, Inc. and that
 it will not use this program in any manner prohibited above.
 ---------------------------------------------------------------
  

 Cite this work as:
 Gaussian 16, Revision C.02,
 M. J. Frisch, G. W. Trucks, H. B. Schlegel, G. E. Scuseria, 
 M. A. Robb, J. R. Cheeseman, G. Scalmani, V. Barone, 
 G. A. Petersson, H. Nakatsuji, X. Li, M. Caricato, A. V. Marenich, 
 J. Bloino, B. G. Janesko, R. Gomperts, B. Mennucci, H. P. Hratchian, 
 J. V. Ortiz, A. F. Izmaylov, J. L. Sonnenberg, D. Williams-Young, 
 F. Ding, F. Lipparini, F. Egidi, J. Goings, B. Peng, A. Petrone, 
 T. Henderson, D. Ranasinghe, V. G. Zakrzewski, J. Gao, N. Rega, 
 G. Zheng, W. Liang, M. Hada, M. Ehara, K. Toyota, R. Fukuda, 
 J. Hasegawa, M. Ishida, T. Nakajima, Y. Honda, O. Kitao, H. Nakai, 
 T. Vreven, K. Throssell, J. A. Montgomery, Jr., J. E. Peralta, 
 F. Ogliaro, M. J. Bearpark, J. J. Heyd, E. N. Brothers, K. N. Kudin, 
 V. N. Staroverov, T. A. Keith, R. Kobayashi, J. Normand, 
 K. Raghavachari, A. P. Rendell, J. C. Burant, S. S. Iyengar, 
 J. Tomasi, M. Cossi, J. M. Millam, M. Klene, C. Adamo, R. Cammi, 
 J. W. Ochterski, R. L. Martin, K. Morokuma, O. Farkas, 
 J. B. Foresman, and D. J. Fox, Gaussian, Inc., Wallingford CT, 2019.
 
 ******************************************
 Gaussian 16:  ES64L-G16RevC.02  7-Dec-2021
                14-Jul-2025 
 ******************************************
 %chk=methanol_gaussian.chk
 -------------------------------------------
 # opt freq hf/6-311g(d,p) geom=connectivity
 -------------------------------------------
 1/18=20,19=15,38=1,57=2/1,3;
 2/9=110,12=2,17=6,18=5,40=1/2;
 3/5=4,6=6,7=101,11=9,25=1,30=1,71=1/1,2,3;
 4//1;
 5/5=2,38=5/2;
 6/7=2,8=2,9=2,10=2,28=1/1;
 7//1,2,3,16;
 1/18=20,19=15/3(2);
 2/9=110/2;
 99//99;
 2/9=110/2;
 3/5=4,6=6,7=101,11=9,25=1,30=1,71=1/1,2,3;
 4/5=5,16=3,69=1/1;
 5/5=2,38=5/2;
 7//1,2,3,16;
 1/18=20,19=15/3(-5);
 2/9=110/2;
 6/7=2,8=2,9=2,10=2,19=2,28=1/1;
 99/9=1/99;
 -------------------
 Title Card Required
 -------------------
 Symbolic Z-matrix:
 Charge =  0 Multiplicity = 1
 C                    -0.39683   0.49784   0. 
 H                    -0.04017  -0.51097   0. 
 H                    -0.04015   1.00223   0.87365 
 H                    -1.46683   0.49785   0. 
 O                     0.07985   1.17194  -1.16759 
 H                    -0.24136   2.07661  -1.16889 
 

 GradGradGradGradGradGradGradGradGradGradGradGradGradGradGradGradGradGrad
 Berny optimization.
 Initialization pass.
                           ----------------------------
                           !    Initial Parameters    !
                           ! (Angstroms and Degrees)  !
 --------------------------                            --------------------------
 ! Name  Definition              Value          Derivative Info.                !
 --------------------------------------------------------------------------------
 ! R1    R(1,2)                  1.07           estimate D2E/DX2                !
 ! R2    R(1,3)                  1.07           estimate D2E/DX2                !
 ! R3    R(1,4)                  1.07           estimate D2E/DX2                !
 ! R4    R(1,5)                  1.43           estimate D2E/DX2                !
 ! R5    R(5,6)                  0.96           estimate D2E/DX2                !
 ! A1    A(2,1,3)              109.4712         estimate D2E/DX2                !
 ! A2    A(2,1,4)              109.4712         estimate D2E/DX2                !
 ! A3    A(2,1,5)              109.4712         estimate D2E/DX2                !
 ! A4    A(3,1,4)              109.4712         estimate D2E/DX2                !
 ! A5    A(3,1,5)              109.4713         estimate D2E/DX2                !
 ! A6    A(4,1,5)              109.4712         estimate D2E/DX2                !
 ! A7    A(1,5,6)              109.5            estimate D2E/DX2                !
 ! D1    D(2,1,5,6)            179.888          estimate D2E/DX2                !
 ! D2    D(3,1,5,6)            -60.112          estimate D2E/DX2                !
 ! D3    D(4,1,5,6)             59.888          estimate D2E/DX2                !
 --------------------------------------------------------------------------------
 Trust Radius=3.00D-01 FncErr=1.00D-07 GrdErr=1.00D-07 EigMax=2.50D+02 EigMin=1.00D-04
 Number of steps in this run=     25 maximum allowed number of steps=    100.
 GradGradGradGradGradGradGradGradGradGradGradGradGradGradGradGradGradGrad

                          Input orientation:                          
 ---------------------------------------------------------------------
 Center     Atomic      Atomic             Coordinates (Angstroms)
 Number     Number       Type             X           Y           Z
 ---------------------------------------------------------------------
      1          6           0       -0.396825    0.497835    0.000000
      2          1           0       -0.040171   -0.510975    0.000000
      3          1           0       -0.040153    1.002234    0.873652
      4          1           0       -1.466825    0.497849    0.000000
      5          8           0        0.079850    1.171938   -1.167590
      6          1           0       -0.241355    2.076607   -1.168893
 ---------------------------------------------------------------------
                    Distance matrix (angstroms):
                    1          2          3          4          5
     1  C    0.000000
     2  H    1.070000   0.000000
     3  H    1.070000   1.747302   0.000000
     4  H    1.070000   1.747303   1.747303   0.000000
     5  O    1.430000   2.051796   2.051796   2.051796   0.000000
     6  H    1.970533   2.846465   2.316624   2.315289   0.960000
                    6
     6  H    0.000000
 Stoichiometry    CH4O
 Framework group  C1[X(CH4O)]
 Deg. of freedom    12
 Full point group                 C1      NOp   1
 Largest Abelian subgroup         C1      NOp   1
 Largest concise Abelian subgroup C1      NOp   1
                         Standard orientation:                         
 ---------------------------------------------------------------------
 Center     Atomic      Atomic             Coordinates (Angstroms)
 Number     Number       Type             X           Y           Z
 ---------------------------------------------------------------------
      1          6           0        0.674962   -0.019120   -0.000000
      2          1           0        1.133309    0.947738   -0.001972
      3          1           0        0.978137   -0.555773    0.874636
      4          1           0        0.977786   -0.559171   -0.872664
      5          8           0       -0.747482    0.127687   -0.000000
      6          1           0       -1.159146   -0.739570    0.000000
 ---------------------------------------------------------------------
 Rotational constants (GHZ):         132.1395240          24.7235152          23.8511687
 Standard basis: 6-311G(d,p) (5D, 7F)
 There are    62 symmetry adapted cartesian basis functions of A   symmetry.
 There are    60 symmetry adapted basis functions of A   symmetry.
    60 basis functions,    96 primitive gaussians,    62 cartesian basis functions
     9 alpha electrons        9 beta electrons
       nuclear repulsion energy        40.4269940931 Hartrees.
 NAtoms=    6 NActive=    6 NUniq=    6 SFac= 1.00D+00 NAtFMM=   60 NAOKFM=F Big=F
 Integral buffers will be    131072 words long.
 Raffenetti 1 integral format.
 Two-electron integral symmetry is turned on.
 One-electron integrals computed using PRISM.
 NBasis=    60 RedAO= T EigKep=  8.59D-03  NBF=    60
 NBsUse=    60 1.00D-06 EigRej= -1.00D+00 NBFU=    60
 ExpMin= 1.03D-01 ExpMax= 8.59D+03 ExpMxC= 1.30D+03 IAcc=3 IRadAn=         5 AccDes= 0.00D+00
 Harris functional with IExCor=  205 and IRadAn=       5 diagonalized for initial guess.
 HarFok:  IExCor=  205 AccDes= 0.00D+00 IRadAn=         5 IDoV= 1 UseB2=F ITyADJ=14
 ICtDFT=  3500011 ScaDFX=  1.000000  1.000000  1.000000  1.000000
 FoFCou: FMM=F IPFlag=           0 FMFlag=      100000 FMFlg1=           0
         NFxFlg=           0 DoJE=T BraDBF=F KetDBF=T FulRan=T
         wScrn=  0.000000 ICntrl=       500 IOpCl=  0 I1Cent=   200000004 NGrid=           0
         NMat0=    1 NMatS0=      1 NMatT0=    0 NMatD0=    1 NMtDS0=    0 NMtDT0=    0
 Petite list used in FoFCou.
 Keep R1 ints in memory in canonical form, NReq=2521136.
 Requested convergence on RMS density matrix=1.00D-08 within 128 cycles.
 Requested convergence on MAX density matrix=1.00D-06.
 Requested convergence on             energy=1.00D-06.
 No special actions if energy rises.
 SCF Done:  E(RHF) =  -115.073702160     A.U. after   11 cycles
            NFock= 11  Conv=0.24D-08     -V/T= 1.9999

 **********************************************************************

            Population analysis using the SCF Density.

 **********************************************************************

 Orbital symmetries:
       Occupied  (A) (A) (A) (A) (A) (A) (A) (A) (A)
       Virtual   (A) (A) (A) (A) (A) (A) (A) (A) (A) (A) (A) (A)
                 (A) (A) (A) (A) (A) (A) (A) (A) (A) (A) (A) (A)
                 (A) (A) (A) (A) (A) (A) (A) (A) (A) (A) (A) (A)
                 (A) (A) (A) (A) (A) (A) (A) (A) (A) (A) (A) (A)
                 (A) (A) (A)
 The electronic state is 1-A.
 Alpha  occ. eigenvalues --  -20.53913 -11.26268  -1.34410  -0.93020  -0.68186
 Alpha  occ. eigenvalues --   -0.62129  -0.59304  -0.49853  -0.44595
 Alpha virt. eigenvalues --    0.15483   0.18859   0.22588   0.23405   0.33803
 Alpha virt. eigenvalues --    0.46176   0.47523   0.58789   0.67663   0.74093
 Alpha virt. eigenvalues --    0.79577   0.80610   0.89892   1.03165   1.04682
 Alpha virt. eigenvalues --    1.11708   1.32358   1.39267   1.60974   1.63592
 Alpha virt. eigenvalues --    1.72434   1.72825   1.73539   1.73812   1.86874
 Alpha virt. eigenvalues --    1.95748   2.05149   2.27339   2.29052   2.40093
 Alpha virt. eigenvalues --    2.49349   2.62157   2.68174   2.69952   2.82315
 Alpha virt. eigenvalues --    2.88217   2.91801   3.11500   3.29467   3.45389
 Alpha virt. eigenvalues --    3.59865   3.68228   4.10289   4.23133   4.31888
 Alpha virt. eigenvalues --    4.37070   5.41323   5.77842   6.20909  25.07662
 Alpha virt. eigenvalues --   51.58367
          Condensed to atoms (all electrons):
               1          2          3          4          5          6
     1  C    4.528665   0.415368   0.419244   0.419264   0.234787  -0.037833
     2  H    0.415368   0.572382  -0.030890  -0.030862  -0.023452   0.006767
     3  H    0.419244  -0.030890   0.617343  -0.038071  -0.032478  -0.005027
     4  H    0.419264  -0.030862  -0.038071   0.617347  -0.032446  -0.005074
     5  O    0.234787  -0.023452  -0.032478  -0.032446   8.024296   0.325241
     6  H   -0.037833   0.006767  -0.005027  -0.005074   0.325241   0.470891
 Mulliken charges:
               1
     1  C    0.020504
     2  H    0.090687
     3  H    0.069879
     4  H    0.069842
     5  O   -0.495948
     6  H    0.245035
 Sum of Mulliken charges =  -0.00000
 Mulliken charges with hydrogens summed into heavy atoms:
               1
     1  C    0.250913
     5  O   -0.250913
 Electronic spatial extent (au):  <R**2>=             83.4836
 Charge=              0.0000 electrons
 Dipole moment (field-independent basis, Debye):
    X=              1.0325    Y=             -1.6387    Z=             -0.0002  Tot=              1.9369
 Quadrupole moment (field-independent basis, Debye-Ang):
   XX=            -12.5215   YY=            -11.9870   ZZ=            -13.4743
   XY=              2.4184   XZ=             -0.0004   YZ=             -0.0002
 Traceless Quadrupole moment (field-independent basis, Debye-Ang):
   XX=              0.1394   YY=              0.6739   ZZ=             -0.8134
   XY=              2.4184   XZ=             -0.0004   YZ=             -0.0002
 Octapole moment (field-independent basis, Debye-Ang**2):
  XXX=             -4.1123  YYY=             -0.6850  ZZZ=              0.0026  XYY=             -1.6879
  XXY=             -2.3640  XXZ=             -0.0006  XZZ=             -0.4159  YZZ=             -0.6663
  YYZ=             -0.0031  XYZ=             -0.0006
 Hexadecapole moment (field-independent basis, Debye-Ang**3):
 XXXX=            -59.1540 YYYY=            -18.8222 ZZZZ=            -18.3083 XXXY=              4.2603
 XXXZ=             -0.0010 YYYX=              2.9593 YYYZ=              0.0001 ZZZX=              0.0031
 ZZZY=             -0.0004 XXYY=            -11.7823 XXZZ=            -13.6755 YYZZ=             -6.2708
 XXYZ=             -0.0012 YYXZ=             -0.0037 ZZXY=             -0.1357
 N-N= 4.042699409306D+01 E-N=-3.522580324198D+02  KE= 1.150902370521D+02
 Calling FoFJK, ICntrl=      2127 FMM=F ISym2X=0 I1Cent= 0 IOpClX= 0 NMat=1 NMatS=1 NMatT=0.
 ***** Axes restored to original set *****
 -------------------------------------------------------------------
 Center     Atomic                   Forces (Hartrees/Bohr)
 Number     Number              X              Y              Z
 -------------------------------------------------------------------
      1        6           0.006096176    0.023091081   -0.023293716
      2        1           0.004684445   -0.006257417   -0.004036722
      3        1           0.003129850    0.002224988    0.012394914
      4        1          -0.012212472   -0.003208567    0.003001794
      5        8          -0.008212712    0.006447720    0.009600869
      6        1           0.006514712   -0.022297805    0.002332861
 -------------------------------------------------------------------
 Cartesian Forces:  Max     0.023293716 RMS     0.011238470

 GradGradGradGradGradGradGradGradGradGradGradGradGradGradGradGradGradGrad
 Berny optimization.
 FormGI is forming the generalized inverse of G from B-inverse, IUseBI=4.
 Internal  Forces:  Max     0.023195548 RMS     0.009882290
 Search for a local minimum.
 Step number   1 out of a maximum of   25
 All quantities printed in internal units (Hartrees-Bohrs-Radians)
 Mixed Optimization -- RFO/linear search
 Second derivative matrix not updated -- first step.
 The second derivative matrix:
                          R1        R2        R3        R4        R5
           R1           0.37230
           R2           0.00000   0.37230
           R3           0.00000   0.00000   0.37230
           R4           0.00000   0.00000   0.00000   0.40989
           R5           0.00000   0.00000   0.00000   0.00000   0.55473
           A1           0.00000   0.00000   0.00000   0.00000   0.00000
           A2           0.00000   0.00000   0.00000   0.00000   0.00000
           A3           0.00000   0.00000   0.00000   0.00000   0.00000
           A4           0.00000   0.00000   0.00000   0.00000   0.00000
           A5           0.00000   0.00000   0.00000   0.00000   0.00000
           A6           0.00000   0.00000   0.00000   0.00000   0.00000
           A7           0.00000   0.00000   0.00000   0.00000   0.00000
           D1           0.00000   0.00000   0.00000   0.00000   0.00000
           D2           0.00000   0.00000   0.00000   0.00000   0.00000
           D3           0.00000   0.00000   0.00000   0.00000   0.00000
                          A1        A2        A3        A4        A5
           A1           0.16000
           A2           0.00000   0.16000
           A3           0.00000   0.00000   0.16000
           A4           0.00000   0.00000   0.00000   0.16000
           A5           0.00000   0.00000   0.00000   0.00000   0.16000
           A6           0.00000   0.00000   0.00000   0.00000   0.00000
           A7           0.00000   0.00000   0.00000   0.00000   0.00000
           D1           0.00000   0.00000   0.00000   0.00000   0.00000
           D2           0.00000   0.00000   0.00000   0.00000   0.00000
           D3           0.00000   0.00000   0.00000   0.00000   0.00000
                          A6        A7        D1        D2        D3
           A6           0.16000
           A7           0.00000   0.16000
           D1           0.00000   0.00000   0.01295
           D2           0.00000   0.00000   0.00000   0.01295
           D3           0.00000   0.00000   0.00000   0.00000   0.01295
 ITU=  0
     Eigenvalues ---    0.01295   0.10344   0.10344   0.16000   0.16000
     Eigenvalues ---    0.16000   0.16000   0.37230   0.37230   0.37230
     Eigenvalues ---    0.40989   0.55473
 RFO step:  Lambda=-4.39503389D-03 EMin= 1.29493794D-02
 Linear search not attempted -- first point.
 Iteration  1 RMS(Cart)=  0.04121470 RMS(Int)=  0.00109968
 Iteration  2 RMS(Cart)=  0.00076473 RMS(Int)=  0.00079836
 Iteration  3 RMS(Cart)=  0.00000071 RMS(Int)=  0.00079836
 Variable       Old X    -DE/DX   Delta X   Delta X   Delta X     New X
                                 (Linear)    (Quad)   (Total)
    R1        2.02201   0.00746   0.00000   0.01981   0.01981   2.04181
    R2        2.02201   0.01221   0.00000   0.03242   0.03242   2.05443
    R3        2.02201   0.01221   0.00000   0.03242   0.03242   2.05443
    R4        2.70231  -0.01778   0.00000  -0.04292  -0.04292   2.65939
    R5        1.81414  -0.02320   0.00000  -0.04149  -0.04149   1.77265
    A1        1.91063  -0.00095   0.00000  -0.01241  -0.01213   1.89850
    A2        1.91063  -0.00095   0.00000  -0.01244  -0.01216   1.89847
    A3        1.91063  -0.01038   0.00000  -0.06976  -0.06947   1.84116
    A4        1.91063  -0.00188   0.00000   0.00185   0.00012   1.91075
    A5        1.91063   0.00707   0.00000   0.04635   0.04548   1.95611
    A6        1.91063   0.00708   0.00000   0.04641   0.04554   1.95618
    A7        1.91114  -0.00481   0.00000  -0.02928  -0.02928   1.88185
    D1        3.13964   0.00000   0.00000   0.00027   0.00027   3.13990
    D2       -1.04915  -0.00318   0.00000  -0.02927  -0.03082  -1.07997
    D3        1.04524   0.00319   0.00000   0.02980   0.03135   1.07660
         Item               Value     Threshold  Converged?
 Maximum Force            0.023196     0.000450     NO 
 RMS     Force            0.009882     0.000300     NO 
 Maximum Displacement     0.080551     0.001800     NO 
 RMS     Displacement     0.041247     0.001200     NO 
 Predicted change in Energy=-2.250832D-03
 GradGradGradGradGradGradGradGradGradGradGradGradGradGradGradGradGradGrad

                          Input orientation:                          
 ---------------------------------------------------------------------
 Center     Atomic      Atomic             Coordinates (Angstroms)
 Number     Number       Type             X           Y           Z
 ---------------------------------------------------------------------
      1          6           0       -0.404220    0.527127   -0.004898
      2          1           0       -0.023790   -0.483461   -0.042626
      3          1           0       -0.040993    1.004132    0.901987
      4          1           0       -1.490622    0.491531    0.014382
      5          8           0        0.083961    1.156074   -1.165313
      6          1           0       -0.229816    2.040085   -1.166364
 ---------------------------------------------------------------------
                    Distance matrix (angstroms):
                    1          2          3          4          5
     1  C    0.000000
     2  H    1.080481   0.000000
     3  H    1.087156   1.762249   0.000000
     4  H    1.087156   1.762230   1.775395   0.000000
     5  O    1.407287   1.990003   2.076639   2.076683   0.000000
     6  H    1.915322   2.770111   2.320975   2.319873   0.938047
                    6
     6  H    0.000000
 Stoichiometry    CH4O
 Framework group  C1[X(CH4O)]
 Deg. of freedom    12
 Full point group                 C1      NOp   1
 Largest Abelian subgroup         C1      NOp   1
 Largest concise Abelian subgroup C1      NOp   1
                         Standard orientation:                         
 ---------------------------------------------------------------------
 Center     Atomic      Atomic             Coordinates (Angstroms)
 Number     Number       Type             X           Y           Z
 ---------------------------------------------------------------------
      1          6           0        0.659377   -0.019764    0.000007
      2          1           0        1.048212    0.988325   -0.001806
      3          1           0        1.019684   -0.532196    0.888545
      4          1           0        1.019454   -0.535266   -0.886847
      5          8           0       -0.741190    0.117607    0.000002
      6          1           0       -1.114092   -0.743135    0.000048
 ---------------------------------------------------------------------
 Rotational constants (GHZ):         130.3706337          25.3205250          24.4628378
 Standard basis: 6-311G(d,p) (5D, 7F)
 There are    62 symmetry adapted cartesian basis functions of A   symmetry.
 There are    60 symmetry adapted basis functions of A   symmetry.
    60 basis functions,    96 primitive gaussians,    62 cartesian basis functions
     9 alpha electrons        9 beta electrons
       nuclear repulsion energy        40.7498597372 Hartrees.
 NAtoms=    6 NActive=    6 NUniq=    6 SFac= 1.00D+00 NAtFMM=   60 NAOKFM=F Big=F
 Integral buffers will be    131072 words long.
 Raffenetti 1 integral format.
 Two-electron integral symmetry is turned on.
 One-electron integrals computed using PRISM.
 NBasis=    60 RedAO= T EigKep=  8.46D-03  NBF=    60
 NBsUse=    60 1.00D-06 EigRej= -1.00D+00 NBFU=    60
 Initial guess from the checkpoint file:  "methanol_gaussian.chk"
 B after Tr=    -0.000000   -0.000000    0.000000
         Rot=    0.999938   -0.000086   -0.000010   -0.011115 Ang=  -1.27 deg.
 ExpMin= 1.03D-01 ExpMax= 8.59D+03 ExpMxC= 1.30D+03 IAcc=3 IRadAn=         5 AccDes= 0.00D+00
 Harris functional with IExCor=  205 and IRadAn=       5 diagonalized for initial guess.
 HarFok:  IExCor=  205 AccDes= 0.00D+00 IRadAn=         5 IDoV= 1 UseB2=F ITyADJ=14
 ICtDFT=  3500011 ScaDFX=  1.000000  1.000000  1.000000  1.000000
 FoFCou: FMM=F IPFlag=           0 FMFlag=      100000 FMFlg1=           0
         NFxFlg=           0 DoJE=T BraDBF=F KetDBF=T FulRan=T
         wScrn=  0.000000 ICntrl=       500 IOpCl=  0 I1Cent=   200000004 NGrid=           0
         NMat0=    1 NMatS0=      1 NMatT0=    0 NMatD0=    1 NMtDS0=    0 NMtDT0=    0
 Petite list used in FoFCou.
 Keep R1 ints in memory in canonical form, NReq=2521151.
 Requested convergence on RMS density matrix=1.00D-08 within 128 cycles.
 Requested convergence on MAX density matrix=1.00D-06.
 Requested convergence on             energy=1.00D-06.
 No special actions if energy rises.
 SCF Done:  E(RHF) =  -115.075558599     A.U. after   10 cycles
            NFock= 10  Conv=0.26D-08     -V/T= 1.9997
 Calling FoFJK, ICntrl=      2127 FMM=F ISym2X=0 I1Cent= 0 IOpClX= 0 NMat=1 NMatS=1 NMatT=0.
 ***** Axes restored to original set *****
 -------------------------------------------------------------------
 Center     Atomic                   Forces (Hartrees/Bohr)
 Number     Number              X              Y              Z
 -------------------------------------------------------------------
      1        6           0.005712761   -0.002236576   -0.008019840
      2        1          -0.001500889   -0.001932281    0.003573565
      3        1          -0.000342174    0.000379682    0.000250564
      4        1          -0.000268804    0.000402567    0.000288431
      5        8          -0.004319919    0.000566910    0.006693628
      6        1           0.000719025    0.002819698   -0.002786348
 -------------------------------------------------------------------
 Cartesian Forces:  Max     0.008019840 RMS     0.003344757

 GradGradGradGradGradGradGradGradGradGradGradGradGradGradGradGradGradGrad
 Berny optimization.
 Using GEDIIS/GDIIS optimizer.
 FormGI is forming the generalized inverse of G from B-inverse, IUseBI=4.
 Internal  Forces:  Max     0.006852685 RMS     0.002704936
 Search for a local minimum.
 Step number   2 out of a maximum of   25
 All quantities printed in internal units (Hartrees-Bohrs-Radians)
 Mixed Optimization -- RFO/linear search
 Update second derivatives using D2CorX and points    1    2
 DE= -1.86D-03 DEPred=-2.25D-03 R= 8.25D-01
 TightC=F SS=  1.41D+00  RLast= 1.35D-01 DXNew= 5.0454D-01 4.0375D-01
 Trust test= 8.25D-01 RLast= 1.35D-01 DXMaxT set to 4.04D-01
 The second derivative matrix:
                          R1        R2        R3        R4        R5
           R1           0.36735
           R2          -0.00610   0.36611
           R3          -0.00610  -0.00619   0.36611
           R4           0.01208   0.01507   0.01507   0.38043
           R5           0.00815   0.00522   0.00522  -0.02057   0.55889
           A1           0.00420   0.00710   0.00710  -0.01000  -0.01393
           A2           0.00420   0.00710   0.00710  -0.01000  -0.01392
           A3          -0.00203  -0.00878  -0.00878   0.00409   0.02624
           A4          -0.00110  -0.00208  -0.00208   0.00260   0.00445
           A5          -0.00239  -0.00129  -0.00129   0.00606  -0.00208
           A6          -0.00238  -0.00128  -0.00128   0.00604  -0.00212
           A7          -0.00486  -0.01129  -0.01130   0.01114   0.02733
           D1          -0.00001  -0.00001  -0.00001   0.00002   0.00002
           D2          -0.00514  -0.00992  -0.00992   0.01206   0.02153
           D3           0.00513   0.00989   0.00989  -0.01202  -0.02148
                          A1        A2        A3        A4        A5
           A1           0.15922
           A2          -0.00079   0.15921
           A3          -0.00739  -0.00738   0.18897
           A4          -0.00011  -0.00011   0.00298   0.16015
           A5           0.00443   0.00442  -0.00881  -0.00143   0.16091
           A6           0.00443   0.00443  -0.00885  -0.00144   0.00092
           A7          -0.00356  -0.00355   0.02316   0.00181  -0.00896
           D1           0.00000   0.00000   0.00001   0.00000  -0.00001
           D2          -0.00083  -0.00082   0.01489   0.00081  -0.00695
           D3           0.00083   0.00083  -0.01486  -0.00081   0.00693
                          A6        A7        D1        D2        D3
           A6           0.16093
           A7          -0.00899   0.17645
           D1          -0.00001   0.00000   0.01295
           D2          -0.00697   0.00929   0.00000   0.01730
           D3           0.00695  -0.00928  -0.00000  -0.00434   0.01729
 ITU=  1  0
 Use linear search instead of GDIIS.
     Eigenvalues ---    0.01295   0.10462   0.10620   0.15249   0.16000
     Eigenvalues ---    0.16000   0.20839   0.34592   0.37230   0.37331
     Eigenvalues ---    0.39440   0.56707
 RFO step:  Lambda=-3.84731816D-04 EMin= 1.29493582D-02
 Quartic linear search produced a step of -0.14007.
 Iteration  1 RMS(Cart)=  0.01286060 RMS(Int)=  0.00017359
 Iteration  2 RMS(Cart)=  0.00014397 RMS(Int)=  0.00011248
 Iteration  3 RMS(Cart)=  0.00000000 RMS(Int)=  0.00011248
 Variable       Old X    -DE/DX   Delta X   Delta X   Delta X     New X
                                 (Linear)    (Quad)   (Total)
    R1        2.04181   0.00115  -0.00277   0.00733   0.00456   2.04637
    R2        2.05443   0.00026  -0.00454   0.00825   0.00371   2.05813
    R3        2.05443   0.00026  -0.00454   0.00825   0.00370   2.05813
    R4        2.65939  -0.00296   0.00601  -0.01630  -0.01028   2.64910
    R5        1.77265   0.00242   0.00581  -0.00597  -0.00016   1.77249
    A1        1.89850  -0.00165   0.00170  -0.00880  -0.00722   1.89128
    A2        1.89847  -0.00165   0.00170  -0.00881  -0.00722   1.89126
    A3        1.84116   0.00685   0.00973   0.02289   0.03250   1.87366
    A4        1.91075  -0.00101  -0.00002  -0.01093  -0.01076   1.90000
    A5        1.95611  -0.00118  -0.00637   0.00301  -0.00331   1.95280
    A6        1.95618  -0.00119  -0.00638   0.00298  -0.00335   1.95282
    A7        1.88185   0.00571   0.00410   0.02350   0.02760   1.90945
    D1        3.13990   0.00001  -0.00004   0.00046   0.00043   3.14033
    D2       -1.07997   0.00156   0.00432   0.00541   0.00996  -1.07001
    D3        1.07660  -0.00155  -0.00439  -0.00447  -0.00909   1.06751
         Item               Value     Threshold  Converged?
 Maximum Force            0.006853     0.000450     NO 
 RMS     Force            0.002705     0.000300     NO 
 Maximum Displacement     0.024120     0.001800     NO 
 RMS     Displacement     0.012772     0.001200     NO 
 Predicted change in Energy=-2.474443D-04
 GradGradGradGradGradGradGradGradGradGradGradGradGradGradGradGradGradGrad

                          Input orientation:                          
 ---------------------------------------------------------------------
 Center     Atomic      Atomic             Coordinates (Angstroms)
 Number     Number       Type             X           Y           Z
 ---------------------------------------------------------------------
      1          6           0       -0.399289    0.522781   -0.010493
      2          1           0       -0.027747   -0.494194   -0.029862
      3          1           0       -0.040944    1.001705    0.899670
      4          1           0       -1.487638    0.490008    0.013929
      5          8           0        0.078538    1.164481   -1.161611
      6          1           0       -0.228401    2.050707   -1.174466
 ---------------------------------------------------------------------
                    Distance matrix (angstroms):
                    1          2          3          4          5
     1  C    0.000000
     2  H    1.082892   0.000000
     3  H    1.089117   1.761226   0.000000
     4  H    1.089116   1.761208   1.771806   0.000000
     5  O    1.401846   2.010809   2.071147   2.071163   0.000000
     6  H    1.928366   2.797659   2.331863   2.331039   0.937962
                    6
     6  H    0.000000
 Stoichiometry    CH4O
 Framework group  C1[X(CH4O)]
 Deg. of freedom    12
 Full point group                 C1      NOp   1
 Largest Abelian subgroup         C1      NOp   1
 Largest concise Abelian subgroup C1      NOp   1
                         Standard orientation:                         
 ---------------------------------------------------------------------
 Center     Atomic      Atomic             Coordinates (Angstroms)
 Number     Number       Type             X           Y           Z
 ---------------------------------------------------------------------
      1          6           0        0.656484   -0.019527    0.000004
      2          1           0        1.080508    0.976896   -0.001321
      3          1           0        1.012296   -0.542638    0.886531
      4          1           0        1.012098   -0.544880   -0.885274
      5          8           0       -0.738432    0.119684    0.000003
      6          1           0       -1.136353   -0.729687    0.000019
 ---------------------------------------------------------------------
 Rotational constants (GHZ):         131.0827899          25.3542262          24.5040673
 Standard basis: 6-311G(d,p) (5D, 7F)
 There are    62 symmetry adapted cartesian basis functions of A   symmetry.
 There are    60 symmetry adapted basis functions of A   symmetry.
    60 basis functions,    96 primitive gaussians,    62 cartesian basis functions
     9 alpha electrons        9 beta electrons
       nuclear repulsion energy        40.7778032064 Hartrees.
 NAtoms=    6 NActive=    6 NUniq=    6 SFac= 1.00D+00 NAtFMM=   60 NAOKFM=F Big=F
 Integral buffers will be    131072 words long.
 Raffenetti 1 integral format.
 Two-electron integral symmetry is turned on.
 One-electron integrals computed using PRISM.
 NBasis=    60 RedAO= T EigKep=  8.52D-03  NBF=    60
 NBsUse=    60 1.00D-06 EigRej= -1.00D+00 NBFU=    60
 Initial guess from the checkpoint file:  "methanol_gaussian.chk"
 B after Tr=     0.000000   -0.000000   -0.000000
         Rot=    0.999991   -0.000194    0.000007    0.004327 Ang=  -0.50 deg.
 ExpMin= 1.03D-01 ExpMax= 8.59D+03 ExpMxC= 1.30D+03 IAcc=3 IRadAn=         5 AccDes= 0.00D+00
 Harris functional with IExCor=  205 and IRadAn=       5 diagonalized for initial guess.
 HarFok:  IExCor=  205 AccDes= 0.00D+00 IRadAn=         5 IDoV= 1 UseB2=F ITyADJ=14
 ICtDFT=  3500011 ScaDFX=  1.000000  1.000000  1.000000  1.000000
 FoFCou: FMM=F IPFlag=           0 FMFlag=      100000 FMFlg1=           0
         NFxFlg=           0 DoJE=T BraDBF=F KetDBF=T FulRan=T
         wScrn=  0.000000 ICntrl=       500 IOpCl=  0 I1Cent=   200000004 NGrid=           0
         NMat0=    1 NMatS0=      1 NMatT0=    0 NMatD0=    1 NMtDS0=    0 NMtDT0=    0
 Petite list used in FoFCou.
 Keep R1 ints in memory in canonical form, NReq=2521136.
 Requested convergence on RMS density matrix=1.00D-08 within 128 cycles.
 Requested convergence on MAX density matrix=1.00D-06.
 Requested convergence on             energy=1.00D-06.
 No special actions if energy rises.
 SCF Done:  E(RHF) =  -115.075801798     A.U. after    9 cycles
            NFock=  9  Conv=0.25D-08     -V/T= 1.9997
 Calling FoFJK, ICntrl=      2127 FMM=F ISym2X=0 I1Cent= 0 IOpClX= 0 NMat=1 NMatS=1 NMatT=0.
 ***** Axes restored to original set *****
 -------------------------------------------------------------------
 Center     Atomic                   Forces (Hartrees/Bohr)
 Number     Number              X              Y              Z
 -------------------------------------------------------------------
      1        6           0.000514472    0.000831693   -0.001318223
      2        1          -0.000263343    0.000737261    0.000009352
      3        1          -0.000360960   -0.000399102   -0.000365531
      4        1           0.000606588   -0.000059467    0.000224922
      5        8           0.000215838   -0.002870609    0.001293331
      6        1          -0.000712594    0.001760223    0.000156150
 -------------------------------------------------------------------
 Cartesian Forces:  Max     0.002870609 RMS     0.000992824

 GradGradGradGradGradGradGradGradGradGradGradGradGradGradGradGradGradGrad
 Berny optimization.
 Using GEDIIS/GDIIS optimizer.
 FormGI is forming the generalized inverse of G from B-inverse, IUseBI=4.
 Internal  Forces:  Max     0.001894182 RMS     0.000767738
 Search for a local minimum.
 Step number   3 out of a maximum of   25
 All quantities printed in internal units (Hartrees-Bohrs-Radians)
 Mixed Optimization -- En-DIIS/RFO-DIIS
 Update second derivatives using D2CorX and points    1    2    3
 DE= -2.43D-04 DEPred=-2.47D-04 R= 9.83D-01
 TightC=F SS=  1.41D+00  RLast= 4.90D-02 DXNew= 6.7903D-01 1.4686D-01
 Trust test= 9.83D-01 RLast= 4.90D-02 DXMaxT set to 4.04D-01
 The second derivative matrix:
                          R1        R2        R3        R4        R5
           R1           0.37523
           R2           0.00007   0.37097
           R3           0.00007  -0.00133   0.37097
           R4           0.01557   0.01826   0.01825   0.34739
           R5          -0.00360  -0.00433  -0.00433  -0.00917   0.56891
           A1           0.00077   0.00448   0.00448  -0.01478  -0.00733
           A2           0.00076   0.00447   0.00447  -0.01477  -0.00732
           A3           0.00672  -0.00239  -0.00240   0.03014   0.00317
           A4           0.00119  -0.00007  -0.00007  -0.01090   0.00791
           A5          -0.00411  -0.00258  -0.00258   0.00449   0.00069
           A6          -0.00411  -0.00257  -0.00257   0.00444   0.00068
           A7           0.00572  -0.00332  -0.00333   0.03035   0.00505
           D1          -0.00003  -0.00003  -0.00003   0.00007   0.00002
           D2           0.00032  -0.00559  -0.00559   0.00831   0.01645
           D3          -0.00036   0.00554   0.00555  -0.00817  -0.01642
                          A1        A2        A3        A4        A5
           A1           0.16043
           A2           0.00043   0.16043
           A3          -0.00925  -0.00925   0.18539
           A4          -0.00246  -0.00246   0.01470   0.15474
           A5           0.00514   0.00514  -0.01048  -0.00224   0.16134
           A6           0.00515   0.00514  -0.01050  -0.00226   0.00135
           A7          -0.00691  -0.00690   0.02628   0.01089  -0.01113
           D1           0.00002   0.00002  -0.00005   0.00002  -0.00000
           D2          -0.00382  -0.00381   0.02506  -0.00021  -0.00833
           D3           0.00384   0.00383  -0.02513   0.00025   0.00832
                          A6        A7        D1        D2        D3
           A6           0.16137
           A7          -0.01115   0.18506
           D1          -0.00000  -0.00005   0.01295
           D2          -0.00836   0.01933  -0.00000   0.02001
           D3           0.00835  -0.01939   0.00000  -0.00705   0.01999
 ITU=  1  1  0
 Use linear search instead of GDIIS.
     Eigenvalues ---    0.01295   0.10434   0.10526   0.14310   0.16000
     Eigenvalues ---    0.16022   0.22404   0.34096   0.37230   0.37392
     Eigenvalues ---    0.39604   0.56998
 RFO step:  Lambda=-2.11341392D-05 EMin= 1.29489896D-02
 Quartic linear search produced a step of -0.00276.
 Iteration  1 RMS(Cart)=  0.00165627 RMS(Int)=  0.00000199
 Iteration  2 RMS(Cart)=  0.00000193 RMS(Int)=  0.00000058
 Iteration  3 RMS(Cart)=  0.00000000 RMS(Int)=  0.00000058
 Variable       Old X    -DE/DX   Delta X   Delta X   Delta X     New X
                                 (Linear)    (Quad)   (Total)
    R1        2.04637  -0.00078  -0.00001  -0.00176  -0.00178   2.04459
    R2        2.05813  -0.00060  -0.00001  -0.00127  -0.00128   2.05686
    R3        2.05813  -0.00060  -0.00001  -0.00126  -0.00128   2.05686
    R4        2.64910  -0.00187   0.00003  -0.00528  -0.00525   2.64385
    R5        1.77249   0.00189   0.00000   0.00322   0.00322   1.77571
    A1        1.89128  -0.00011   0.00002  -0.00120  -0.00118   1.89010
    A2        1.89126  -0.00011   0.00002  -0.00119  -0.00118   1.89008
    A3        1.87366  -0.00012  -0.00009   0.00059   0.00050   1.87416
    A4        1.90000  -0.00028   0.00003  -0.00218  -0.00215   1.89785
    A5        1.95280   0.00030   0.00001   0.00192   0.00193   1.95473
    A6        1.95282   0.00030   0.00001   0.00192   0.00193   1.95475
    A7        1.90945  -0.00037  -0.00008  -0.00092  -0.00099   1.90846
    D1        3.14033   0.00000  -0.00000   0.00032   0.00032   3.14065
    D2       -1.07001  -0.00003  -0.00003   0.00033   0.00030  -1.06971
    D3        1.06751   0.00004   0.00003   0.00031   0.00033   1.06784
         Item               Value     Threshold  Converged?
 Maximum Force            0.001894     0.000450     NO 
 RMS     Force            0.000768     0.000300     NO 
 Maximum Displacement     0.003048     0.001800     NO 
 RMS     Displacement     0.001657     0.001200     NO 
 Predicted change in Energy=-1.056935D-05
 GradGradGradGradGradGradGradGradGradGradGradGradGradGradGradGradGradGrad

                          Input orientation:                          
 ---------------------------------------------------------------------
 Center     Atomic      Atomic             Coordinates (Angstroms)
 Number     Number       Type             X           Y           Z
 ---------------------------------------------------------------------
      1          6           0       -0.398814    0.523456   -0.011705
      2          1           0       -0.028220   -0.492887   -0.029771
      3          1           0       -0.041746    1.001193    0.898775
      4          1           0       -1.486433    0.490111    0.014323
      5          8           0        0.078553    1.162868   -1.160905
      6          1           0       -0.228820    2.050747   -1.173549
 ---------------------------------------------------------------------
                    Distance matrix (angstroms):
                    1          2          3          4          5
     1  C    0.000000
     2  H    1.081952   0.000000
     3  H    1.088442   1.759164   0.000000
     4  H    1.088441   1.759152   1.769345   0.000000
     5  O    1.399067   2.008081   2.069515   2.069528   0.000000
     6  H    1.926499   2.796166   2.330469   2.329853   0.939663
                    6
     6  H    0.000000
 Stoichiometry    CH4O
 Framework group  C1[X(CH4O)]
 Deg. of freedom    12
 Full point group                 C1      NOp   1
 Largest Abelian subgroup         C1      NOp   1
 Largest concise Abelian subgroup C1      NOp   1
                         Standard orientation:                         
 ---------------------------------------------------------------------
 Center     Atomic      Atomic             Coordinates (Angstroms)
 Number     Number       Type             X           Y           Z
 ---------------------------------------------------------------------
      1          6           0        0.654887   -0.019477    0.000003
      2          1           0        1.079336    0.975743   -0.000986
      3          1           0        1.012272   -0.542460    0.885141
      4          1           0        1.012125   -0.544134   -0.884203
      5          8           0       -0.737222    0.119878    0.000002
      6          1           0       -1.135278   -0.731309    0.000015
 ---------------------------------------------------------------------
 Rotational constants (GHZ):         131.2439699          25.4346122          24.5743098
 Standard basis: 6-311G(d,p) (5D, 7F)
 There are    62 symmetry adapted cartesian basis functions of A   symmetry.
 There are    60 symmetry adapted basis functions of A   symmetry.
    60 basis functions,    96 primitive gaussians,    62 cartesian basis functions
     9 alpha electrons        9 beta electrons
       nuclear repulsion energy        40.8209340842 Hartrees.
 NAtoms=    6 NActive=    6 NUniq=    6 SFac= 1.00D+00 NAtFMM=   60 NAOKFM=F Big=F
 Integral buffers will be    131072 words long.
 Raffenetti 1 integral format.
 Two-electron integral symmetry is turned on.
 One-electron integrals computed using PRISM.
 NBasis=    60 RedAO= T EigKep=  8.48D-03  NBF=    60
 NBsUse=    60 1.00D-06 EigRej= -1.00D+00 NBFU=    60
 Initial guess from the checkpoint file:  "methanol_gaussian.chk"
 B after Tr=    -0.000000    0.000000   -0.000000
         Rot=    1.000000   -0.000133    0.000003   -0.000043 Ang=  -0.02 deg.
 Keep R1 ints in memory in canonical form, NReq=2521136.
 Requested convergence on RMS density matrix=1.00D-08 within 128 cycles.
 Requested convergence on MAX density matrix=1.00D-06.
 Requested convergence on             energy=1.00D-06.
 No special actions if energy rises.
 SCF Done:  E(RHF) =  -115.075811929     A.U. after    8 cycles
            NFock=  8  Conv=0.52D-08     -V/T= 1.9996
 Calling FoFJK, ICntrl=      2127 FMM=F ISym2X=0 I1Cent= 0 IOpClX= 0 NMat=1 NMatS=1 NMatT=0.
 ***** Axes restored to original set *****
 -------------------------------------------------------------------
 Center     Atomic                   Forces (Hartrees/Bohr)
 Number     Number              X              Y              Z
 -------------------------------------------------------------------
      1        6          -0.000033084   -0.000007735    0.000060796
      2        1          -0.000007176    0.000006619    0.000011543
      3        1          -0.000034448   -0.000038267    0.000031403
      4        1           0.000003904   -0.000026843    0.000053132
      5        8           0.000015893    0.000180557   -0.000143900
      6        1           0.000054911   -0.000114330   -0.000012974
 -------------------------------------------------------------------
 Cartesian Forces:  Max     0.000180557 RMS     0.000067532

 GradGradGradGradGradGradGradGradGradGradGradGradGradGradGradGradGradGrad
 Berny optimization.
 Using GEDIIS/GDIIS optimizer.
 FormGI is forming the generalized inverse of G from B-inverse, IUseBI=4.
 Internal  Forces:  Max     0.000183283 RMS     0.000067216
 Search for a local minimum.
 Step number   4 out of a maximum of   25
 All quantities printed in internal units (Hartrees-Bohrs-Radians)
 Mixed Optimization -- En-DIIS/RFO-DIIS
 Swapping is turned off.
 Update second derivatives using D2CorX and points    1    2    3    4
 DE= -1.01D-05 DEPred=-1.06D-05 R= 9.59D-01
 TightC=F SS=  1.41D+00  RLast= 7.79D-03 DXNew= 6.7903D-01 2.3375D-02
 Trust test= 9.59D-01 RLast= 7.79D-03 DXMaxT set to 4.04D-01
 The second derivative matrix:
                          R1        R2        R3        R4        R5
           R1           0.37403
           R2          -0.00064   0.37058
           R3          -0.00064  -0.00173   0.37057
           R4           0.01735   0.02003   0.02003   0.37509
           R5          -0.00458  -0.00551  -0.00550  -0.02939   0.58422
           A1          -0.00144   0.00255   0.00256  -0.01821  -0.00225
           A2          -0.00141   0.00257   0.00258  -0.01811  -0.00232
           A3           0.00593  -0.00306  -0.00306   0.02707   0.00610
           A4           0.00013  -0.00037  -0.00037  -0.01470   0.00900
           A5          -0.00117  -0.00030  -0.00030   0.01060  -0.00587
           A6          -0.00119  -0.00030  -0.00030   0.01049  -0.00584
           A7           0.00672  -0.00236  -0.00237   0.03399   0.00110
           D1           0.00006   0.00004   0.00004   0.00033  -0.00021
           D2           0.00186  -0.00377  -0.00378   0.00835   0.01234
           D3          -0.00171   0.00387   0.00387  -0.00766  -0.01280
                          A1        A2        A3        A4        A5
           A1           0.15969
           A2          -0.00030   0.15971
           A3          -0.00873  -0.00873   0.18567
           A4          -0.00354  -0.00352   0.01419   0.15325
           A5           0.00607   0.00605  -0.01087  -0.00027   0.15976
           A6           0.00607   0.00606  -0.01089  -0.00030  -0.00022
           A7          -0.00691  -0.00690   0.02561   0.01084  -0.01082
           D1           0.00004   0.00004  -0.00007   0.00006  -0.00004
           D2          -0.00357  -0.00357   0.02421  -0.00026  -0.00812
           D3           0.00365   0.00365  -0.02431   0.00039   0.00802
                          A6        A7        D1        D2        D3
           A6           0.15980
           A7          -0.01085   0.18524
           D1          -0.00004  -0.00003   0.01295
           D2          -0.00814   0.01908  -0.00001   0.01936
           D3           0.00805  -0.01912   0.00001  -0.00642   0.01937
 ITU=  1  1  1  0
     Eigenvalues ---    0.01295   0.10422   0.10508   0.13557   0.16000
     Eigenvalues ---    0.16053   0.22552   0.34736   0.37230   0.37400
     Eigenvalues ---    0.40968   0.58979
 En-DIIS/RFO-DIIS/Sim-DIIS IScMMF=       -3 using points:     4    3
 RFO step:  Lambda=-2.11135292D-07.
 DidBck=F Rises=F RFO-DIIS coefs:    1.00614   -0.00614
 Iteration  1 RMS(Cart)=  0.00039139 RMS(Int)=  0.00000009
 Iteration  2 RMS(Cart)=  0.00000006 RMS(Int)=  0.00000004
 Variable       Old X    -DE/DX   Delta X   Delta X   Delta X     New X
                                 (Linear)    (Quad)   (Total)
    R1        2.04459  -0.00001  -0.00001  -0.00003  -0.00005   2.04455
    R2        2.05686  -0.00000  -0.00001  -0.00002  -0.00003   2.05683
    R3        2.05686  -0.00000  -0.00001  -0.00002  -0.00003   2.05683
    R4        2.64385   0.00018  -0.00003   0.00044   0.00041   2.64426
    R5        1.77571  -0.00013   0.00002  -0.00020  -0.00018   1.77553
    A1        1.89010  -0.00004  -0.00001  -0.00024  -0.00025   1.88985
    A2        1.89008  -0.00004  -0.00001  -0.00023  -0.00024   1.88984
    A3        1.87416  -0.00001   0.00000  -0.00009  -0.00009   1.87407
    A4        1.89785  -0.00006  -0.00001  -0.00032  -0.00034   1.89751
    A5        1.95473   0.00007   0.00001   0.00043   0.00044   1.95517
    A6        1.95475   0.00007   0.00001   0.00042   0.00043   1.95519
    A7        1.90846   0.00004  -0.00001   0.00021   0.00020   1.90866
    D1        3.14065   0.00000   0.00000   0.00022   0.00022   3.14087
    D2       -1.06971  -0.00001   0.00000   0.00011   0.00012  -1.06960
    D3        1.06784   0.00001   0.00000   0.00032   0.00032   1.06815
         Item               Value     Threshold  Converged?
 Maximum Force            0.000183     0.000450     YES
 RMS     Force            0.000067     0.000300     YES
 Maximum Displacement     0.000708     0.001800     YES
 RMS     Displacement     0.000391     0.001200     YES
 Predicted change in Energy=-1.055693D-07
 Optimization completed.
    -- Stationary point found.
                           ----------------------------
                           !   Optimized Parameters   !
                           ! (Angstroms and Degrees)  !
 --------------------------                            --------------------------
 ! Name  Definition              Value          Derivative Info.                !
 --------------------------------------------------------------------------------
 ! R1    R(1,2)                  1.082          -DE/DX =    0.0                 !
 ! R2    R(1,3)                  1.0884         -DE/DX =    0.0                 !
 ! R3    R(1,4)                  1.0884         -DE/DX =    0.0                 !
 ! R4    R(1,5)                  1.3991         -DE/DX =    0.0002              !
 ! R5    R(5,6)                  0.9397         -DE/DX =   -0.0001              !
 ! A1    A(2,1,3)              108.2947         -DE/DX =    0.0                 !
 ! A2    A(2,1,4)              108.2936         -DE/DX =    0.0                 !
 ! A3    A(2,1,5)              107.3812         -DE/DX =    0.0                 !
 ! A4    A(3,1,4)              108.7385         -DE/DX =   -0.0001              !
 ! A5    A(3,1,5)              111.9979         -DE/DX =    0.0001              !
 ! A6    A(4,1,5)              111.999          -DE/DX =    0.0001              !
 ! A7    A(1,5,6)              109.3466         -DE/DX =    0.0                 !
 ! D1    D(2,1,5,6)            179.946          -DE/DX =    0.0                 !
 ! D2    D(3,1,5,6)            -61.2899         -DE/DX =    0.0                 !
 ! D3    D(4,1,5,6)             61.1825         -DE/DX =    0.0                 !
 --------------------------------------------------------------------------------
 GradGradGradGradGradGradGradGradGradGradGradGradGradGradGradGradGradGrad

                          Input orientation:                          
 ---------------------------------------------------------------------
 Center     Atomic      Atomic             Coordinates (Angstroms)
 Number     Number       Type             X           Y           Z
 ---------------------------------------------------------------------
      1          6           0       -0.398814    0.523456   -0.011705
      2          1           0       -0.028220   -0.492887   -0.029771
      3          1           0       -0.041746    1.001193    0.898775
      4          1           0       -1.486433    0.490111    0.014323
      5          8           0        0.078553    1.162868   -1.160905
      6          1           0       -0.228820    2.050747   -1.173549
 ---------------------------------------------------------------------
                    Distance matrix (angstroms):
                    1          2          3          4          5
     1  C    0.000000
     2  H    1.081952   0.000000
     3  H    1.088442   1.759164   0.000000
     4  H    1.088441   1.759152   1.769345   0.000000
     5  O    1.399067   2.008081   2.069515   2.069528   0.000000
     6  H    1.926499   2.796166   2.330469   2.329853   0.939663
                    6
     6  H    0.000000
 Stoichiometry    CH4O
 Framework group  C1[X(CH4O)]
 Deg. of freedom    12
 Full point group                 C1      NOp   1
 Largest Abelian subgroup         C1      NOp   1
 Largest concise Abelian subgroup C1      NOp   1
                         Standard orientation:                         
 ---------------------------------------------------------------------
 Center     Atomic      Atomic             Coordinates (Angstroms)
 Number     Number       Type             X           Y           Z
 ---------------------------------------------------------------------
      1          6           0        0.654887   -0.019477    0.000003
      2          1           0        1.079336    0.975743   -0.000986
      3          1           0        1.012272   -0.542460    0.885141
      4          1           0        1.012125   -0.544134   -0.884203
      5          8           0       -0.737222    0.119878    0.000002
      6          1           0       -1.135278   -0.731309    0.000015
 ---------------------------------------------------------------------
 Rotational constants (GHZ):         131.2439699          25.4346122          24.5743098

 **********************************************************************

            Population analysis using the SCF Density.

 **********************************************************************

 Orbital symmetries:
       Occupied  (A) (A) (A) (A) (A) (A) (A) (A) (A)
       Virtual   (A) (A) (A) (A) (A) (A) (A) (A) (A) (A) (A) (A)
                 (A) (A) (A) (A) (A) (A) (A) (A) (A) (A) (A) (A)
                 (A) (A) (A) (A) (A) (A) (A) (A) (A) (A) (A) (A)
                 (A) (A) (A) (A) (A) (A) (A) (A) (A) (A) (A) (A)
                 (A) (A) (A)
 The electronic state is 1-A.
 Alpha  occ. eigenvalues --  -20.54114 -11.26564  -1.36213  -0.92671  -0.69449
 Alpha  occ. eigenvalues --   -0.62094  -0.59571  -0.49787  -0.44487
 Alpha virt. eigenvalues --    0.15549   0.18997   0.22654   0.23325   0.34708
 Alpha virt. eigenvalues --    0.45639   0.48042   0.59484   0.69639   0.73158
 Alpha virt. eigenvalues --    0.78741   0.80326   0.89776   1.02294   1.05139
 Alpha virt. eigenvalues --    1.11566   1.31690   1.39644   1.59276   1.62738
 Alpha virt. eigenvalues --    1.72053   1.72089   1.74410   1.74556   1.88360
 Alpha virt. eigenvalues --    1.94723   2.04873   2.27784   2.30768   2.40044
 Alpha virt. eigenvalues --    2.50529   2.60602   2.66366   2.70375   2.80786
 Alpha virt. eigenvalues --    2.83764   2.90877   3.09943   3.34865   3.47930
 Alpha virt. eigenvalues --    3.62858   3.71000   4.08261   4.18882   4.34619
 Alpha virt. eigenvalues --    4.37832   5.41483   5.80850   6.27137  25.04538
 Alpha virt. eigenvalues --   51.59929
          Condensed to atoms (all electrons):
               1          2          3          4          5          6
     1  C    4.539807   0.415556   0.416026   0.416034   0.242404  -0.040654
     2  H    0.415556   0.581728  -0.031860  -0.031846  -0.028525   0.007689
     3  H    0.416026  -0.031860   0.630169  -0.041530  -0.032325  -0.005290
     4  H    0.416034  -0.031846  -0.041530   0.630167  -0.032308  -0.005314
     5  O    0.242404  -0.028525  -0.032325  -0.032308   7.990640   0.331018
     6  H   -0.040654   0.007689  -0.005290  -0.005314   0.331018   0.469341
 Mulliken charges:
               1
     1  C    0.010828
     2  H    0.087259
     3  H    0.064811
     4  H    0.064797
     5  O   -0.470904
     6  H    0.243210
 Sum of Mulliken charges =  -0.00000
 Mulliken charges with hydrogens summed into heavy atoms:
               1
     1  C    0.227694
     5  O   -0.227694
 Electronic spatial extent (au):  <R**2>=             82.6189
 Charge=             -0.0000 electrons
 Dipole moment (field-independent basis, Debye):
    X=              0.8947    Y=             -1.5978    Z=             -0.0001  Tot=              1.8312
 Quadrupole moment (field-independent basis, Debye-Ang):
   XX=            -12.6267   YY=            -12.0474   ZZ=            -13.5197
   XY=              2.3038   XZ=             -0.0002   YZ=             -0.0001
 Traceless Quadrupole moment (field-independent basis, Debye-Ang):
   XX=              0.1046   YY=              0.6838   ZZ=             -0.7884
   XY=              2.3038   XZ=             -0.0002   YZ=             -0.0001
 Octapole moment (field-independent basis, Debye-Ang**2):
  XXX=             -4.3775  YYY=             -0.5992  ZZZ=              0.0011  XYY=             -1.8256
  XXY=             -2.3682  XXZ=             -0.0002  XZZ=             -0.5222  YZZ=             -0.6237
  YYZ=             -0.0015  XYZ=             -0.0002
 Hexadecapole moment (field-independent basis, Debye-Ang**3):
 XXXX=            -58.2675 YYYY=            -19.0032 ZZZZ=            -18.8057 XXXY=              3.8612
 XXXZ=             -0.0004 YYYX=              2.9346 YYYZ=             -0.0002 ZZZX=              0.0014
 ZZZY=             -0.0001 XXYY=            -11.8024 XXZZ=            -13.4518 YYZZ=             -6.4312
 XXYZ=             -0.0004 YYXZ=             -0.0019 ZZXY=             -0.1318
 N-N= 4.082093408422D+01 E-N=-3.530107639681D+02  KE= 1.151162948048D+02
 Unable to Open any file for archive entry.
 1\1\GINC-SV1-C724\FOpt\RHF\6-311G(d,p)\C1H4O1\LME\14-Jul-2025\0\\# opt
  freq hf/6-311g(d,p) geom=connectivity\\Title Card Required\\0,1\C,-0.
 3988143255,0.52345584,-0.0117051299\H,-0.0282197871,-0.492887331,-0.02
 97712983\H,-0.0417463078,1.0011933673,0.8987754873\H,-1.4864333223,0.4
 901105646,0.0143226111\O,0.0785533707,1.1628680927,-1.1609048981\H,-0.
 2288197479,2.0507471564,-1.1735486121\\Version=ES64L-G16RevC.02\State=
 1-A\HF=-115.0758119\RMSD=5.242e-09\RMSF=6.753e-05\Dipole=-0.4163421,0.
 3078266,0.5009761\Quadrupole=-0.7576105,1.7514994,-0.9938889,-0.388904
 1,0.5049534,-0.7189504\PG=C01 [X(C1H4O1)]\\@
 The archive entry for this job was punched.


 ASKING DUMB QUESTIONS IS EASIER THAN CORECTING DUMB MISTAKES.
 Job cpu time:       0 days  0 hours  0 minutes  4.2 seconds.
 Elapsed time:       0 days  0 hours  0 minutes  4.1 seconds.
 File lengths (MBytes):  RWF=      6 Int=      0 D2E=      0 Chk=      1 Scr=      1
 Normal termination of Gaussian 16 at Mon Jul 14 10:12:33 2025.
 Link1:  Proceeding to internal job step number  2.
 --------------------------------------------------------------------
 #N Geom=AllCheck Guess=TCheck SCRF=Check GenChk RHF/6-311G(d,p) Freq
 --------------------------------------------------------------------
 1/10=4,29=7,30=1,38=1,40=1/1,3;
 2/12=2,40=1/2;
 3/5=4,6=6,7=101,11=1,14=-4,25=1,30=1,70=2,71=2,116=1,140=1/1,2,3;
 4/5=101/1;
 5/5=2,38=6,98=1/2;
 8/6=4,10=90,11=11/1;
 10/13=10,15=4/2;
 11/6=3,8=1,9=11,15=111,16=1/1,2,10;
 10/6=1/2;
 6/7=2,8=2,9=2,10=2,28=1/1;
 7/8=1,10=1,25=1/1,2,3,16;
 1/10=4,30=1/3;
 99//99;
 Structure from the checkpoint file:  "methanol_gaussian.chk"
 -------------------
 Title Card Required
 -------------------
 Charge =  0 Multiplicity = 1
 Redundant internal coordinates found in file.  (old form).
 C,0,-0.3988143255,0.52345584,-0.0117051299
 H,0,-0.0282197871,-0.492887331,-0.0297712983
 H,0,-0.0417463078,1.0011933673,0.8987754873
 H,0,-1.4864333223,0.4901105646,0.0143226111
 O,0,0.0785533707,1.1628680927,-1.1609048981
 H,0,-0.2288197479,2.0507471564,-1.1735486121
 Recover connectivity data from disk.

 GradGradGradGradGradGradGradGradGradGradGradGradGradGradGradGradGradGrad
 Berny optimization.
 Initialization pass.
                           ----------------------------
                           !    Initial Parameters    !
                           ! (Angstroms and Degrees)  !
 --------------------------                            --------------------------
 ! Name  Definition              Value          Derivative Info.                !
 --------------------------------------------------------------------------------
 ! R1    R(1,2)                  1.082          calculate D2E/DX2 analytically  !
 ! R2    R(1,3)                  1.0884         calculate D2E/DX2 analytically  !
 ! R3    R(1,4)                  1.0884         calculate D2E/DX2 analytically  !
 ! R4    R(1,5)                  1.3991         calculate D2E/DX2 analytically  !
 ! R5    R(5,6)                  0.9397         calculate D2E/DX2 analytically  !
 ! A1    A(2,1,3)              108.2947         calculate D2E/DX2 analytically  !
 ! A2    A(2,1,4)              108.2936         calculate D2E/DX2 analytically  !
 ! A3    A(2,1,5)              107.3812         calculate D2E/DX2 analytically  !
 ! A4    A(3,1,4)              108.7385         calculate D2E/DX2 analytically  !
 ! A5    A(3,1,5)              111.9979         calculate D2E/DX2 analytically  !
 ! A6    A(4,1,5)              111.999          calculate D2E/DX2 analytically  !
 ! A7    A(1,5,6)              109.3466         calculate D2E/DX2 analytically  !
 ! D1    D(2,1,5,6)            179.946          calculate D2E/DX2 analytically  !
 ! D2    D(3,1,5,6)            -61.2899         calculate D2E/DX2 analytically  !
 ! D3    D(4,1,5,6)             61.1825         calculate D2E/DX2 analytically  !
 --------------------------------------------------------------------------------
 Trust Radius=3.00D-01 FncErr=1.00D-07 GrdErr=1.00D-07 EigMax=2.50D+02 EigMin=1.00D-04
 Number of steps in this run=      2 maximum allowed number of steps=      2.
 GradGradGradGradGradGradGradGradGradGradGradGradGradGradGradGradGradGrad

                          Input orientation:                          
 ---------------------------------------------------------------------
 Center     Atomic      Atomic             Coordinates (Angstroms)
 Number     Number       Type             X           Y           Z
 ---------------------------------------------------------------------
      1          6           0       -0.398814    0.523456   -0.011705
      2          1           0       -0.028220   -0.492887   -0.029771
      3          1           0       -0.041746    1.001193    0.898775
      4          1           0       -1.486433    0.490111    0.014323
      5          8           0        0.078553    1.162868   -1.160905
      6          1           0       -0.228820    2.050747   -1.173549
 ---------------------------------------------------------------------
                    Distance matrix (angstroms):
                    1          2          3          4          5
     1  C    0.000000
     2  H    1.081952   0.000000
     3  H    1.088442   1.759164   0.000000
     4  H    1.088441   1.759152   1.769345   0.000000
     5  O    1.399067   2.008081   2.069515   2.069528   0.000000
     6  H    1.926499   2.796166   2.330469   2.329853   0.939663
                    6
     6  H    0.000000
 Stoichiometry    CH4O
 Framework group  C1[X(CH4O)]
 Deg. of freedom    12
 Full point group                 C1      NOp   1
 Largest Abelian subgroup         C1      NOp   1
 Largest concise Abelian subgroup C1      NOp   1
                         Standard orientation:                         
 ---------------------------------------------------------------------
 Center     Atomic      Atomic             Coordinates (Angstroms)
 Number     Number       Type             X           Y           Z
 ---------------------------------------------------------------------
      1          6           0        0.654887   -0.019477    0.000003
      2          1           0        1.079336    0.975743   -0.000986
      3          1           0        1.012272   -0.542460    0.885141
      4          1           0        1.012125   -0.544134   -0.884203
      5          8           0       -0.737222    0.119878    0.000002
      6          1           0       -1.135278   -0.731309    0.000015
 ---------------------------------------------------------------------
 Rotational constants (GHZ):         131.2439699          25.4346122          24.5743098
 Standard basis: 6-311G(d,p) (5D, 7F)
 There are    62 symmetry adapted cartesian basis functions of A   symmetry.
 There are    60 symmetry adapted basis functions of A   symmetry.
    60 basis functions,    96 primitive gaussians,    62 cartesian basis functions
     9 alpha electrons        9 beta electrons
       nuclear repulsion energy        40.8209340842 Hartrees.
 NAtoms=    6 NActive=    6 NUniq=    6 SFac= 1.00D+00 NAtFMM=   60 NAOKFM=F Big=F
 Integral buffers will be    131072 words long.
 Raffenetti 1 integral format.
 Two-electron integral symmetry is turned on.
 One-electron integrals computed using PRISM.
 NBasis=    60 RedAO= T EigKep=  8.48D-03  NBF=    60
 NBsUse=    60 1.00D-06 EigRej= -1.00D+00 NBFU=    60
 Initial guess from the checkpoint file:  "methanol_gaussian.chk"
 B after Tr=     0.000000    0.000000    0.000000
         Rot=    1.000000   -0.000000   -0.000000   -0.000000 Ang=   0.00 deg.
 Keep R1 ints in memory in canonical form, NReq=2521136.
 Requested convergence on RMS density matrix=1.00D-08 within 128 cycles.
 Requested convergence on MAX density matrix=1.00D-06.
 Requested convergence on             energy=1.00D-06.
 No special actions if energy rises.
 SCF Done:  E(RHF) =  -115.075811929     A.U. after    1 cycles
            NFock=  1  Conv=0.84D-09     -V/T= 1.9996
 Range of M.O.s used for correlation:     1    60
 NBasis=    60 NAE=     9 NBE=     9 NFC=     0 NFV=     0
 NROrb=     60 NOA=     9 NOB=     9 NVA=    51 NVB=    51
          Differentiating once with respect to electric field.
                with respect to dipole field.
          Electric field/nuclear overlap derivatives assumed to be zero.
 Keep R1 ints in memory in canonical form, NReq=2521813.
          There are     3 degrees of freedom in the 1st order CPHF.  IDoFFX=0 NUNeed=     3.
      3 vectors produced by pass  0 Test12= 1.53D-14 3.33D-08 XBig12= 3.33D+00 6.77D-01.
 AX will form     3 AO Fock derivatives at one time.
      3 vectors produced by pass  1 Test12= 1.53D-14 3.33D-08 XBig12= 1.56D-01 1.44D-01.
      3 vectors produced by pass  2 Test12= 1.53D-14 3.33D-08 XBig12= 1.67D-02 4.23D-02.
      3 vectors produced by pass  3 Test12= 1.53D-14 3.33D-08 XBig12= 5.10D-04 6.86D-03.
      3 vectors produced by pass  4 Test12= 1.53D-14 3.33D-08 XBig12= 8.22D-06 8.14D-04.
      3 vectors produced by pass  5 Test12= 1.53D-14 3.33D-08 XBig12= 1.88D-07 1.30D-04.
      3 vectors produced by pass  6 Test12= 1.53D-14 3.33D-08 XBig12= 5.72D-09 2.88D-05.
      3 vectors produced by pass  7 Test12= 1.53D-14 3.33D-08 XBig12= 8.18D-11 2.36D-06.
      3 vectors produced by pass  8 Test12= 1.53D-14 3.33D-08 XBig12= 9.09D-13 2.26D-07.
 InvSVY:  IOpt=1 It=  1 EMax= 6.66D-16
 Solved reduced A of dimension    27 with     3 vectors.
 End of Minotr F.D. properties file   721 does not exist.
 End of Minotr F.D. properties file   722 does not exist.
 End of Minotr F.D. properties file   788 does not exist.
 Symmetrizing basis deriv contribution to polar:
 IMax=3 JMax=2 DiffMx= 0.00D+00
 G2DrvN: will do     7 centers at a time, making    1 passes.
 PxScal for G2LodP:  IOpCl= 0 ISclPx=1 IMOff=     1 NMtTot=     4 NTT=    1830 ScalPx= 1.00D+00
 Calling FoFCou, ICntrl=  3107 FMM=F I1Cent=   0 AccDes= 0.00D+00.
 End of G2Drv F.D. properties file   721 does not exist.
 End of G2Drv F.D. properties file   722 does not exist.
 End of G2Drv F.D. properties file   788 does not exist.
          IDoAtm=111111
          Differentiating once with respect to electric field.
                with respect to dipole field.
          Differentiating once with respect to nuclear coordinates.
 Keep R1 ints in memory in canonical form, NReq=2521951.
          There are    21 degrees of freedom in the 1st order CPHF.  IDoFFX=5 NUNeed=    21.
 Will reuse    3 saved solutions.
     15 vectors produced by pass  0 Test12= 2.19D-15 4.76D-09 XBig12= 4.40D-02 7.96D-02.
 AX will form    15 AO Fock derivatives at one time.
     15 vectors produced by pass  1 Test12= 2.19D-15 4.76D-09 XBig12= 1.05D-03 9.46D-03.
     15 vectors produced by pass  2 Test12= 2.19D-15 4.76D-09 XBig12= 8.36D-05 2.33D-03.
     15 vectors produced by pass  3 Test12= 2.19D-15 4.76D-09 XBig12= 8.69D-07 2.46D-04.
     15 vectors produced by pass  4 Test12= 2.19D-15 4.76D-09 XBig12= 8.78D-09 2.64D-05.
     15 vectors produced by pass  5 Test12= 2.19D-15 4.76D-09 XBig12= 5.55D-11 1.90D-06.
     11 vectors produced by pass  6 Test12= 2.19D-15 4.76D-09 XBig12= 3.00D-13 1.84D-07.
      1 vectors produced by pass  7 Test12= 2.19D-15 4.76D-09 XBig12= 1.50D-15 1.58D-08.
 InvSVY:  IOpt=1 It=  1 EMax= 1.33D-15
 Solved reduced A of dimension   102 with    15 vectors.
 Isotropic polarizability for W=    0.000000       15.67 Bohr**3.
 End of Minotr F.D. properties file   721 does not exist.
 End of Minotr F.D. properties file   722 does not exist.
 End of Minotr F.D. properties file   788 does not exist.

 **********************************************************************

            Population analysis using the SCF Density.

 **********************************************************************

 Orbital symmetries:
       Occupied  (A) (A) (A) (A) (A) (A) (A) (A) (A)
       Virtual   (A) (A) (A) (A) (A) (A) (A) (A) (A) (A) (A) (A)
                 (A) (A) (A) (A) (A) (A) (A) (A) (A) (A) (A) (A)
                 (A) (A) (A) (A) (A) (A) (A) (A) (A) (A) (A) (A)
                 (A) (A) (A) (A) (A) (A) (A) (A) (A) (A) (A) (A)
                 (A) (A) (A)
 The electronic state is 1-A.
 Alpha  occ. eigenvalues --  -20.54114 -11.26564  -1.36213  -0.92671  -0.69449
 Alpha  occ. eigenvalues --   -0.62094  -0.59571  -0.49787  -0.44487
 Alpha virt. eigenvalues --    0.15549   0.18997   0.22654   0.23325   0.34708
 Alpha virt. eigenvalues --    0.45639   0.48042   0.59484   0.69639   0.73158
 Alpha virt. eigenvalues --    0.78741   0.80326   0.89776   1.02294   1.05139
 Alpha virt. eigenvalues --    1.11566   1.31690   1.39644   1.59276   1.62738
 Alpha virt. eigenvalues --    1.72053   1.72089   1.74410   1.74556   1.88360
 Alpha virt. eigenvalues --    1.94723   2.04873   2.27784   2.30768   2.40044
 Alpha virt. eigenvalues --    2.50529   2.60602   2.66366   2.70375   2.80786
 Alpha virt. eigenvalues --    2.83764   2.90877   3.09943   3.34865   3.47930
 Alpha virt. eigenvalues --    3.62858   3.71000   4.08261   4.18882   4.34619
 Alpha virt. eigenvalues --    4.37832   5.41483   5.80850   6.27137  25.04538
 Alpha virt. eigenvalues --   51.59929
          Condensed to atoms (all electrons):
               1          2          3          4          5          6
     1  C    4.539807   0.415556   0.416026   0.416034   0.242404  -0.040654
     2  H    0.415556   0.581728  -0.031860  -0.031846  -0.028525   0.007689
     3  H    0.416026  -0.031860   0.630169  -0.041530  -0.032325  -0.005290
     4  H    0.416034  -0.031846  -0.041530   0.630167  -0.032308  -0.005314
     5  O    0.242404  -0.028525  -0.032325  -0.032308   7.990640   0.331018
     6  H   -0.040654   0.007689  -0.005290  -0.005314   0.331018   0.469341
 Mulliken charges:
               1
     1  C    0.010828
     2  H    0.087259
     3  H    0.064811
     4  H    0.064797
     5  O   -0.470904
     6  H    0.243210
 Sum of Mulliken charges =  -0.00000
 Mulliken charges with hydrogens summed into heavy atoms:
               1
     1  C    0.227694
     5  O   -0.227694
 APT charges:
               1
     1  C    0.609894
     2  H   -0.035221
     3  H   -0.085191
     4  H   -0.085176
     5  O   -0.684027
     6  H    0.279721
 Sum of APT charges =  -0.00000
 APT charges with hydrogens summed into heavy atoms:
               1
     1  C    0.404306
     5  O   -0.404306
 Electronic spatial extent (au):  <R**2>=             82.6189
 Charge=             -0.0000 electrons
 Dipole moment (field-independent basis, Debye):
    X=              0.8947    Y=             -1.5978    Z=             -0.0001  Tot=              1.8312
 Quadrupole moment (field-independent basis, Debye-Ang):
   XX=            -12.6267   YY=            -12.0474   ZZ=            -13.5197
   XY=              2.3038   XZ=             -0.0002   YZ=             -0.0001
 Traceless Quadrupole moment (field-independent basis, Debye-Ang):
   XX=              0.1046   YY=              0.6838   ZZ=             -0.7884
   XY=              2.3038   XZ=             -0.0002   YZ=             -0.0001
 Octapole moment (field-independent basis, Debye-Ang**2):
  XXX=             -4.3775  YYY=             -0.5992  ZZZ=              0.0011  XYY=             -1.8256
  XXY=             -2.3682  XXZ=             -0.0002  XZZ=             -0.5222  YZZ=             -0.6237
  YYZ=             -0.0015  XYZ=             -0.0002
 Hexadecapole moment (field-independent basis, Debye-Ang**3):
 XXXX=            -58.2675 YYYY=            -19.0032 ZZZZ=            -18.8057 XXXY=              3.8612
 XXXZ=             -0.0004 YYYX=              2.9346 YYYZ=             -0.0002 ZZZX=              0.0014
 ZZZY=             -0.0001 XXYY=            -11.8024 XXZZ=            -13.4518 YYZZ=             -6.4312
 XXYZ=             -0.0004 YYXZ=             -0.0019 ZZXY=             -0.1318
 N-N= 4.082093408422D+01 E-N=-3.530107639334D+02  KE= 1.151162947681D+02
  Exact polarizability:      16.742       0.885      15.855       0.000       0.000      14.411
 Approx polarizability:      13.331       0.596      13.568       0.000      -0.000      11.914
 Calling FoFJK, ICntrl=    100127 FMM=F ISym2X=0 I1Cent= 0 IOpClX= 0 NMat=1 NMatS=1 NMatT=0.
 Full mass-weighted force constant matrix:
 Low frequencies ---  -14.1166  -10.5924   -0.0009   -0.0006    0.0014   24.8157
 Low frequencies ---  344.7708 1160.2771 1180.0099
 Diagonal vibrational polarizability:
        3.4542073       0.3100923      31.4688428
 Diagonal vibrational hyperpolarizability:
        7.2799074      -4.8639096       0.0186861
 Harmonic frequencies (cm**-1), IR intensities (KM/Mole), Raman scattering
 activities (A**4/AMU), depolarization ratios for plane and unpolarized
 incident light, reduced masses (AMU), force constants (mDyne/A),
 and normal coordinates:
                      1                      2                      3
                      A                      A                      A
 Frequencies --    344.7647              1160.2770              1180.0099
 Red. masses --      1.0715                 1.0827                 6.4100
 Frc consts  --      0.0750                 0.8587                 5.2587
 IR Inten    --    137.5322                51.2572                90.9672
 Raman Activ --      2.5119                 1.4544                 8.3146
 Depolar (P) --      0.7500                 0.6495                 0.4218
 Depolar (U) --      0.8571                 0.7875                 0.5933
  Atom  AN      X      Y      Z        X      Y      Z        X      Y      Z
     1   6    -0.00  -0.00   0.00    -0.00   0.07  -0.00    -0.49   0.05   0.00
     2   1    -0.00   0.00   0.29     0.55  -0.16  -0.00    -0.36  -0.00  -0.00
     3   1    -0.06  -0.22  -0.10    -0.29  -0.19  -0.04    -0.42   0.02  -0.01
     4   1     0.06   0.22  -0.10    -0.29  -0.19   0.04    -0.42   0.02   0.01
     5   8     0.00   0.00  -0.07    -0.03  -0.00  -0.00     0.43  -0.04  -0.00
     6   1     0.00   0.00   0.89     0.59  -0.30   0.00     0.29   0.04  -0.00
                      4                      5                      6
                      A                      A                      A
 Frequencies --   1277.3915              1489.3183              1615.3491
 Red. masses --      1.2722                 1.3029                 1.1398
 Frc consts  --      1.2231                 1.7026                 1.7523
 IR Inten    --      2.9095                38.3313                 9.0701
 Raman Activ --      4.0142                 2.4962                 4.5307
 Depolar (P) --      0.7500                 0.6902                 0.7268
 Depolar (U) --      0.8571                 0.8167                 0.8418
  Atom  AN      X      Y      Z        X      Y      Z        X      Y      Z
     1   6     0.00   0.00   0.14    -0.02  -0.12   0.00    -0.11  -0.02   0.00
     2   1    -0.00  -0.00  -0.28    -0.43   0.04   0.00     0.61  -0.30  -0.00
     3   1     0.63  -0.12  -0.19     0.19   0.19   0.11     0.42   0.29  -0.02
     4   1    -0.63   0.12  -0.19     0.19   0.19  -0.11     0.42   0.29   0.01
     5   8    -0.00  -0.00  -0.06    -0.03   0.08   0.00    -0.01  -0.01   0.00
     6   1    -0.00   0.00  -0.01     0.74  -0.29  -0.00    -0.04   0.01   0.00
                      7                      8                      9
                      A                      A                      A
 Frequencies --   1618.9323              1630.3298              3140.3934
 Red. masses --      1.0463                 1.0592                 1.0374
 Frc consts  --      1.6157                 1.6588                 6.0280
 IR Inten    --      2.1743                 4.3202                65.9614
 Raman Activ --     13.4423                11.8103               137.2371
 Depolar (P) --      0.7500                 0.7385                 0.0609
 Depolar (U) --      0.8571                 0.8496                 0.1148
  Atom  AN      X      Y      Z        X      Y      Z        X      Y      Z
     1   6    -0.00  -0.00  -0.06     0.05  -0.04  -0.00    -0.04   0.03  -0.00
     2   1     0.00  -0.00   0.72     0.15  -0.07   0.00     0.10   0.25  -0.00
     3   1     0.32   0.36   0.06    -0.36   0.43   0.41     0.21  -0.32   0.56
     4   1    -0.32  -0.36   0.06    -0.36   0.42  -0.41     0.21  -0.32  -0.56
     5   8    -0.00  -0.00  -0.01     0.01  -0.02  -0.00    -0.00  -0.00   0.00
     6   1     0.00  -0.00  -0.01    -0.09   0.03  -0.00    -0.01  -0.00  -0.00
                     10                     11                     12
                      A                      A                      A
 Frequencies --   3184.8421              3256.8325              4185.0339
 Red. masses --      1.1060                 1.0982                 1.0670
[...]
 Thermal correction to Energy=                    0.058130
 Thermal correction to Enthalpy=                  0.059074
 Thermal correction to Gibbs Free Energy=         0.032190
 Sum of electronic and zero-point Energies=           -115.020946
 Sum of electronic and thermal Energies=              -115.017682
 Sum of electronic and thermal Enthalpies=            -115.016738
 Sum of electronic and thermal Free Energies=         -115.043622
 
                     E (Thermal)             CV                S
                      KCal/Mol        Cal/Mol-Kelvin    Cal/Mol-Kelvin
 Total                   36.477              8.382             56.582
 Electronic               0.000              0.000              0.000
 Translational            0.889              2.981             36.324
 Rotational               0.889              2.981             18.911
 Vibrational             34.700              2.420              1.347
 Vibration     1          0.723              1.586              1.190
                       Q            Log10(Q)             Ln(Q)
 Total Bot       0.156157D-14        -14.806438        -34.093083
 Total V=0       0.269300D+11         10.430236         24.016507
 Vib (Bot)       0.723394D-25        -25.140625        -57.888428
 Vib (Bot)    1  0.536954D+00         -0.270063         -0.621842
 Vib (V=0)       0.124752D+01          0.096049          0.221161
 Vib (V=0)    1  0.123370D+01          0.091211          0.210020
 Electronic      0.100000D+01          0.000000          0.000000
 Translational   0.712381D+07          6.852712         15.778953
 Rotational      0.303023D+04          3.481475          8.016393
 ***** Axes restored to original set *****
 -------------------------------------------------------------------
 Center     Atomic                   Forces (Hartrees/Bohr)
 Number     Number              X              Y              Z
 -------------------------------------------------------------------
      1        6          -0.000033087   -0.000007731    0.000060801
      2        1          -0.000007176    0.000006617    0.000011543
      3        1          -0.000034449   -0.000038269    0.000031398
      4        1           0.000003908   -0.000026843    0.000053131
      5        8           0.000015890    0.000180559   -0.000143902
      6        1           0.000054914   -0.000114333   -0.000012971
 -------------------------------------------------------------------
 Cartesian Forces:  Max     0.000180559 RMS     0.000067533
 FormGI is forming the generalized inverse of G from B-inverse, IUseBI=4.

 GradGradGradGradGradGradGradGradGradGradGradGradGradGradGradGradGradGrad
 Berny optimization.
 Internal  Forces:  Max     0.000183282 RMS     0.000067216
 Search for a local minimum.
 Step number   1 out of a maximum of    2
 All quantities printed in internal units (Hartrees-Bohrs-Radians)
 Second derivative matrix not updated -- analytic derivatives used.
 The second derivative matrix:
                          R1        R2        R3        R4        R5
           R1           0.37380
           R2           0.00439   0.35561
           R3           0.00439   0.00528   0.35561
           R4           0.01221   0.01800   0.01799   0.42220
           R5          -0.00225  -0.00007  -0.00007  -0.00146   0.62880
           A1           0.00676   0.00820  -0.00554  -0.03074  -0.00008
           A2           0.00675  -0.00554   0.00820  -0.03073  -0.00007
           A3           0.00249  -0.00530  -0.00530   0.03192   0.00617
           A4          -0.00456   0.00868   0.00868  -0.03112   0.00111
           A5          -0.00522  -0.00043  -0.00557   0.02871  -0.00344
           A6          -0.00522  -0.00557  -0.00043   0.02870  -0.00345
           A7           0.00416   0.00025   0.00025   0.04515   0.01405
           D1           0.00000  -0.00649   0.00649   0.00000  -0.00000
           D2           0.00682  -0.00006  -0.00686  -0.00080   0.00181
           D3          -0.00682   0.00686   0.00005   0.00082  -0.00182
                          A1        A2        A3        A4        A5
           A1           0.08203
           A2           0.00487   0.08203
           A3          -0.04393  -0.04393   0.15916
           A4           0.00553   0.00553  -0.00153   0.08375
           A5          -0.04205  -0.00206  -0.03493  -0.04599   0.15902
           A6          -0.00206  -0.04205  -0.03493  -0.04599  -0.03867
           A7          -0.00576  -0.00576   0.02350   0.00178  -0.00682
           D1          -0.02344   0.02343   0.00001  -0.00000  -0.02245
           D2           0.02483   0.00041   0.02671  -0.02083  -0.00397
           D3          -0.00041  -0.02484  -0.02670   0.02083   0.02455
                          A6        A7        D1        D2        D3
           A6           0.15902
           A7          -0.00684   0.19889
           D1           0.02244   0.00000   0.02880
           D2          -0.02455   0.00387  -0.01288   0.03212
           D3           0.00397  -0.00386  -0.01288  -0.01607   0.03211
 ITU=  0
     Eigenvalues ---    0.00311   0.10166   0.10230   0.15597   0.17513
     Eigenvalues ---    0.21350   0.22994   0.35176   0.35781   0.37447
     Eigenvalues ---    0.45784   0.62947
 Angle between quadratic step and forces=  67.68 degrees.
 Linear search not attempted -- first point.
 Iteration  1 RMS(Cart)=  0.00039663 RMS(Int)=  0.00000016
 Iteration  2 RMS(Cart)=  0.00000014 RMS(Int)=  0.00000002
 Variable       Old X    -DE/DX   Delta X   Delta X   Delta X     New X
                                 (Linear)    (Quad)   (Total)
    R1        2.04459  -0.00001   0.00000  -0.00002  -0.00002   2.04457
    R2        2.05686  -0.00000   0.00000  -0.00001  -0.00001   2.05685
    R3        2.05686  -0.00000   0.00000  -0.00001  -0.00001   2.05685
    R4        2.64385   0.00018   0.00000   0.00034   0.00034   2.64420
    R5        1.77571  -0.00013   0.00000  -0.00020  -0.00020   1.77551
    A1        1.89010  -0.00004   0.00000  -0.00015  -0.00015   1.88995
    A2        1.89008  -0.00004   0.00000  -0.00013  -0.00013   1.88995
    A3        1.87416  -0.00001   0.00000  -0.00009  -0.00009   1.87407
    A4        1.89785  -0.00006   0.00000  -0.00028  -0.00028   1.89757
    A5        1.95473   0.00007   0.00000   0.00032   0.00032   1.95505
    A6        1.95475   0.00007   0.00000   0.00030   0.00030   1.95505
    A7        1.90846   0.00004   0.00000   0.00014   0.00014   1.90860
    D1        3.14065   0.00000   0.00000   0.00094   0.00094   3.14159
    D2       -1.06971  -0.00001   0.00000   0.00089   0.00089  -1.06882
    D3        1.06784   0.00001   0.00000   0.00098   0.00098   1.06882
         Item               Value     Threshold  Converged?
 Maximum Force            0.000183     0.000450     YES
 RMS     Force            0.000067     0.000300     YES
 Maximum Displacement     0.000871     0.001800     YES
 RMS     Displacement     0.000397     0.001200     YES
 Predicted change in Energy=-8.765350D-08
 Optimization completed.
    -- Stationary point found.
                           ----------------------------
                           !   Optimized Parameters   !
                           ! (Angstroms and Degrees)  !
 --------------------------                            --------------------------
 ! Name  Definition              Value          Derivative Info.                !
 --------------------------------------------------------------------------------
 ! R1    R(1,2)                  1.082          -DE/DX =    0.0                 !
 ! R2    R(1,3)                  1.0884         -DE/DX =    0.0                 !
 ! R3    R(1,4)                  1.0884         -DE/DX =    0.0                 !
 ! R4    R(1,5)                  1.3991         -DE/DX =    0.0002              !
 ! R5    R(5,6)                  0.9397         -DE/DX =   -0.0001              !
 ! A1    A(2,1,3)              108.2947         -DE/DX =    0.0                 !
 ! A2    A(2,1,4)              108.2936         -DE/DX =    0.0                 !
 ! A3    A(2,1,5)              107.3812         -DE/DX =    0.0                 !
 ! A4    A(3,1,4)              108.7385         -DE/DX =   -0.0001              !
 ! A5    A(3,1,5)              111.9979         -DE/DX =    0.0001              !
 ! A6    A(4,1,5)              111.999          -DE/DX =    0.0001              !
 ! A7    A(1,5,6)              109.3466         -DE/DX =    0.0                 !
 ! D1    D(2,1,5,6)            179.946          -DE/DX =    0.0                 !
 ! D2    D(3,1,5,6)            -61.2899         -DE/DX =    0.0                 !
 ! D3    D(4,1,5,6)             61.1825         -DE/DX =    0.0                 !
 --------------------------------------------------------------------------------
 GradGradGradGradGradGradGradGradGradGradGradGradGradGradGradGradGradGrad


 ----------------------------------------------------------------------

 Electric dipole moment (input orientation):
 (Debye = 10**-18 statcoulomb cm , SI units = C m)
                  (au)            (Debye)         (10**-30 SI)
   Tot        0.720469D+00      0.183125D+01      0.610839D+01
   x         -0.416342D+00     -0.105824D+01     -0.352990D+01
   y          0.307827D+00      0.782417D+00      0.260986D+01
   z          0.500976D+00      0.127335D+01      0.424745D+01

 Dipole polarizability, Alpha (input orientation).
 (esu units = cm**3 , SI units = C**2 m**2 J**-1)
 Alpha(0;0):
               (au)            (10**-24 esu)      (10**-40 SI)
   iso        0.156695D+02      0.232198D+01      0.258355D+01
   aniso      0.255015D+01      0.377894D+00      0.420464D+00
   xx         0.147111D+02      0.217996D+01      0.242553D+01
   yx        -0.233858D+00     -0.346542D-01     -0.385580D-01
   yy         0.167452D+02      0.248138D+01      0.276091D+01
   zx        -0.354733D+00     -0.525660D-01     -0.584876D-01
   zy        -0.970848D+00     -0.143865D+00     -0.160071D+00
   zz         0.155522D+02      0.230460D+01      0.256421D+01

 First dipole hyperpolarizability, Beta (input orientation).
 ||, _|_  parallel and perpendicular components, (z) with respect to z axis,
 vector components x,y,z.  Values do not include the 1/n! factor of 1/2.
 (esu units = statvolt**-1 cm**4 , SI units = C**3 m**3 J**-2)
 Beta(0;0,0):
               (au)            (10**-30 esu)      (10**-50 SI)
   || (z)     0.369717D+02      0.319407D+00      0.118545D+00
   _|_(z)     0.123239D+02      0.106469D+00      0.395149D-01
   x         -0.990423D+02     -0.855649D+00     -0.317565D+00
   y         -0.400643D+02     -0.346125D+00     -0.128461D+00
   z          0.184859D+03      0.159703D+01      0.592723D+00
   ||         0.427023D+02      0.368915D+00      0.136919D+00
   xxx       -0.424244D+02     -0.366514D+00     -0.136028D+00
   xxy       -0.733471D+01     -0.633661D-01     -0.235177D-01
   yxy        0.596113D+01      0.514995D-01      0.191135D-01
   yyy       -0.127175D+02     -0.109869D+00     -0.407769D-01
   xxz        0.110137D+02      0.951499D-01      0.353140D-01
   yxz        0.781003D+01      0.674726D-01      0.250418D-01
   yyz        0.489706D+01      0.423068D-01      0.157018D-01
   zxz        0.344918D+01      0.297982D-01      0.110593D-01
   zyz        0.669744D+01      0.578606D-01      0.214744D-01
   zzz        0.457088D+02      0.394888D+00      0.146559D+00

 ----------------------------------------------------------------------

 Dipole orientation:
     6         -0.47392079          0.78236778          0.84277538
     1         -0.21098275         -0.81485825         -0.40626144
     1          1.19367869          0.95109593          2.03495973
     1         -2.10513307          0.40579948          2.03776456
     8         -0.82850265          2.91981746         -0.67232865
     1         -1.06439325          4.34261589          0.36359307

 Electric dipole moment (dipole orientation):
 (Debye = 10**-18 statcoulomb cm , SI units = C m)
                  (au)            (Debye)         (10**-30 SI)
   Tot        0.720469D+00      0.183125D+01      0.610839D+01
   x          0.000000D+00      0.000000D+00      0.000000D+00
   y          0.000000D+00      0.000000D+00      0.000000D+00
   z          0.720469D+00      0.183125D+01      0.610839D+01

 Dipole polarizability, Alpha (dipole orientation).
 (esu units = cm**3 , SI units = C**2 m**2 J**-1)
 Alpha(0;0):
               (au)            (10**-24 esu)      (10**-40 SI)
   iso        0.156695D+02      0.232198D+01      0.258355D+01
   aniso      0.255015D+01      0.377894D+00      0.420464D+00
   xx         0.144878D+02      0.214687D+01      0.238871D+01
   yx        -0.464219D+00     -0.687902D-01     -0.765394D-01
   yy         0.172079D+02      0.254995D+01      0.283720D+01
   zx        -0.136510D-01     -0.202287D-02     -0.225075D-02
   zy         0.829893D-01      0.122977D-01      0.136831D-01
   zz         0.153128D+02      0.226912D+01      0.252474D+01

 First dipole hyperpolarizability, Beta (dipole orientation).
 ||, _|_  parallel and perpendicular components, (z) with respect to z axis,
 vector components x,y,z.  Values do not include the 1/n! factor of 1/2.
 (esu units = statvolt**-1 cm**4 , SI units = C**3 m**3 J**-2)
 Beta(0;0,0):
               (au)            (10**-30 esu)      (10**-50 SI)
   || (z)     0.337315D+02      0.291414D+00      0.108155D+00
   _|_(z)     0.112438D+02      0.971379D-01      0.360518D-01
   x          0.214573D+02      0.185374D+00      0.687997D-01
   y         -0.129157D+03     -0.111581D+01     -0.414124D+00
   z          0.168657D+03      0.145707D+01      0.540777D+00
   ||         0.427023D+02      0.368915D+00      0.136919D+00
   xxx        0.446249D+01      0.385524D-01      0.143084D-01
   xxy       -0.861600D+01     -0.744355D-01     -0.276260D-01
   yxy       -0.414110D+00     -0.357759D-02     -0.132779D-02
   yyy       -0.154259D+02     -0.133268D+00     -0.494610D-01
   xxz        0.321642D+02      0.277874D+00      0.103130D+00
   yxz        0.481274D+01      0.415783D-01      0.154314D-01
   yyz        0.376681D+01      0.325423D-01      0.120778D-01
   zxz        0.310404D+01      0.268165D-01      0.995268D-02
   zyz       -0.190104D+02     -0.164235D+00     -0.609542D-01
   zzz        0.202881D+02      0.175274D+00      0.650511D-01

 ----------------------------------------------------------------------
 Unable to Open any file for archive entry.
 1\1\GINC-SV1-C724\Freq\RHF\6-311G(d,p)\C1H4O1\LME\14-Jul-2025\0\\#N Ge
 om=AllCheck Guess=TCheck SCRF=Check GenChk RHF/6-311G(d,p) Freq\\Title
  Card Required\\0,1\C,-0.3988143255,0.52345584,-0.0117051299\H,-0.0282
 197871,-0.492887331,-0.0297712983\H,-0.0417463078,1.0011933673,0.89877
 54873\H,-1.4864333223,0.4901105646,0.0143226111\O,0.0785533707,1.16286
 80927,-1.1609048981\H,-0.2288197479,2.0507471564,-1.1735486121\\Versio
 n=ES64L-G16RevC.02\State=1-A\HF=-115.0758119\RMSD=8.410e-10\RMSF=6.753
 e-05\ZeroPoint=0.0548662\Thermal=0.0581299\ETot=-115.017682\HTot=-115.
 0167378\GTot=-115.0436218\Dipole=-0.4163421,0.3078266,0.5009762\Dipole
 Deriv=0.5279952,0.1076738,-0.0926164,0.1346507,0.512634,-0.2217751,-0.
 1081891,-0.1776452,0.7890527,0.0225624,0.0850326,0.0118416,0.0619507,-
 0.155353,0.0232027,0.0251963,-0.0145638,0.0271267,-0.0080035,-0.066453
 3,-0.0705106,-0.0594214,-0.0415977,-0.1012886,-0.0507235,-0.0483749,-0
 .2059717,-0.2577847,-0.03546,0.0374349,-0.0014802,0.0211611,0.0264844,
 -0.0060655,0.0405342,-0.0189043,-0.6047464,-0.1692168,0.0583066,-0.192
 9923,-0.562919,0.2766842,0.0719547,0.2379292,-0.8844152,0.3199769,0.07
 84237,0.0555439,0.0572925,0.2260746,-0.0033075,0.067827,-0.0378795,0.2
 931118\Polar=14.7111048,-0.2338582,16.7451871,-0.3547332,-0.9708476,15
 .5521965\PolarDeriv=6.8043768,0.8881382,-3.1383883,-0.4336336,-0.00333
 25,-2.6590066,0.893951,-2.6450339,5.2329824,-0.5324089,-0.4457666,-2.8
 560016,-1.2458283,-0.5750118,0.3397977,-2.848079,-3.7535967,-2.6309343
 ,0.899458,-2.2224732,1.8195067,0.1267417,0.1439776,0.8794555,-1.142424
 4,2.1087225,-8.2690586,0.0863495,0.2349006,-0.2740286,-0.4072737,0.008
 8267,0.0557695,0.967619,-1.4955759,0.0708019,0.85842,0.7852486,1.04191
 05,2.0749488,0.4363175,1.413389,0.8859293,1.2133278,1.5702205,0.536363
 9,2.2652415,1.7127059,0.8936602,0.5070387,0.7946317,1.918739,2.1644169
 ,7.7844876,-9.6860349,-0.8612811,-0.4298346,0.6362223,0.1570272,-0.686
 7038,-0.4745031,-1.694285,-0.8922397,0.4030257,0.3625969,0.5411416,0.5
 780642,0.3790658,-0.2522871,-1.9783907,0.1351684,0.504018,1.6709032,-0
 .1062292,2.3235995,-2.1208428,-1.3266931,1.4789238,-0.2671968,1.965820
 1,-4.6709354,-0.4401701,-0.5354093,0.0938172,0.1100916,-0.3617285,-0.9
 974732,2.2764059,1.750333,-5.2403956,-0.5471231,1.5165967,-1.6167938,-
 0.2834362,0.5927032,-0.4260579,0.104244,-0.9485516,7.0290308,-0.053160
 1,-1.8815631,0.7823655,0.071286,0.0418092,0.0595615,-0.3362941,1.19925
 43,-0.4879776\HyperPolar=-42.4244101,-7.3347061,5.9611258,-12.717509,1
 1.0137168,7.8100277,4.8970634,3.4491767,6.6974378,45.7087501\Quadrupol
 e=-0.7576105,1.7514993,-0.9938888,-0.3889041,0.5049534,-0.7189504\PG=C
 01 [X(C1H4O1)]\NImag=0\\0.62616013,-0.02910665,0.65946853,0.01431978,0
 .02734149,0.58542482,-0.09913030,0.10165709,0.00298898,0.09635782,0.09
 349751,-0.30590910,-0.01140337,-0.10209295,0.33607055,0.00770829,-0.02
 473363,-0.05962860,-0.00899892,0.00419337,0.06701691,-0.09731221,-0.04
 489426,-0.07817379,0.00653121,0.00620583,0.01159522,0.09314918,-0.0430
 2915,-0.12502388,-0.10447376,-0.01381208,-0.01391346,-0.02774766,0.050
 30529,0.12250048,-0.07520142,-0.09872336,-0.22899076,-0.00056601,-0.00
 248339,0.00111832,0.07919322,0.10614558,0.26594326,-0.32503421,-0.0008
 3534,-0.00657809,-0.01145773,0.00076814,-0.00164344,-0.01137144,0.0007
 3224,-0.00222263,0.35549302,0.00207266,-0.06497809,-0.00221490,0.03491
 812,0.00365612,0.00129734,-0.01876748,0.00212722,-0.00166806,0.0068097
 6,0.05888963,-0.01231482,-0.00017208,-0.06132346,0.00235032,-0.0008826
 1,0.00153987,-0.03008549,0.00041324,0.00229923,-0.00281239,-0.00631282
 ,0.06720983,-0.11034838,-0.00677575,0.06493199,0.00810876,0.00379231,-
 0.01129447,0.00907714,0.00498151,-0.00108873,-0.00773826,-0.02348506,0
 .04311583,0.18761424,-0.03207317,-0.14485729,0.09396629,-0.01824967,-0
 .02083476,0.04332492,0.00658271,0.01236805,-0.00204003,-0.00750512,-0.
 00059088,0.00860575,-0.15747882,0.70442343,0.07958313,0.05271729,-0.23
 334306,0.00145129,0.00733196,-0.00407273,0.01887464,0.02556979,-0.0408
 3723,0.01298505,0.00970393,-0.01107417,-0.12781773,-0.12009883,0.33151
 894,0.00566497,-0.02004509,0.00251114,-0.00040976,-0.00217083,0.002633
 31,-0.00007388,0.00082219,-0.00011445,0.00010862,-0.00154799,-0.000253
 45,-0.08671350,0.20872407,0.01492362,0.08142355,0.00863880,-0.01870016
 ,-0.00321574,-0.00242050,0.00093065,0.00366566,0.00056791,0.00194159,-
 0.00123074,0.00003033,0.00089600,-0.00165149,0.17896581,-0.55050855,0.
 02477586,-0.18578234,0.56544047,-0.01409497,0.04357029,-0.00213895,0.0
 0277433,0.00324404,-0.00597378,-0.00140380,0.00009281,0.00046719,0.000
 27150,-0.00080550,0.00134869,0.03215310,-0.02375809,-0.04219176,-0.019
 70017,-0.02234355,0.04848861\\0.00003309,0.00000773,-0.00006080,0.0000
 0718,-0.00000662,-0.00001154,0.00003445,0.00003827,-0.00003140,-0.0000
 0391,0.00002684,-0.00005313,-0.00001589,-0.00018056,0.00014390,-0.0000
 5491,0.00011433,0.00001297\\\@
 The archive entry for this job was punched.


 WE ARE PERHAPS NOT FAR REMOVED FROM THE TIME WHEN WE SHALL BE ABLE TO SUBMIT
 THE BULK OF CHEMICAL PHENOMENA TO CALCULATION.

            -- JOSEPH LOUIS GAY-LUSSAC
               MEMOIRES DE LA SOCIETE D'ARCUEIL, 2, 207 (1808)
 Job cpu time:       0 days  0 hours  0 minutes  2.7 seconds.
 Elapsed time:       0 days  0 hours  0 minutes  2.7 seconds.
 File lengths (MBytes):  RWF=      6 Int=      0 D2E=      0 Chk=      1 Scr=      1
 Normal termination of Gaussian 16 at Mon Jul 14 10:12:36 2025.
