[Molden Format]
[Molpro variables]
_NUMVAR=  1059.000000000000    
_AVOGAD= 0.6022140760000000E+24
_BOLTZ= 0.1380649000000000E-22
_CLIGHTSI=  299792458.0000000    
_JOULE= 0.4359744722207100E-17
_JPCAL=  4.184000000000000    
_PLANCK= 0.6626070150000000E-33
_BOHR= 0.5291772109030000E-10
_ECHARG= 0.1602176634000000E-18
_ENULL= 0.8854187812800001E-11
_MU= 0.1660539066600000E-26
_EMASS= 0.9109383701500001E-30
_AMU2AU=  1822.888486217313    
_CLIGHT=  29979245800.00000    
_EV= 0.3674932217565494E-01
_KJOULE= 0.3808798847133432E-03
_KJOULE/MOL= 0.3808798847133432E-03
_CM= 0.4556335252912009E-05
_CM-1= 0.4556335252912009E-05
_DEB2SI= 0.3335640951981520E-29
_KCAL= 0.1593601437640628E-02
_KCAL/MOL= 0.1593601437640628E-02
_KELVIN= 0.3166811563455608E-05
_HERTZ= 0.1519829846057038E-15
_HZ= 0.1519829846057038E-15
_TOA= 0.5291772109030000    
_TOANG= 0.5291772109030000    
_TORAD= 0.1745329251994330E-01
_TOCM=  219474.6313631965    
_TODEBYE=  2.541746473194078    
_TOE= 0.4803204712570263E-09
_TOEV=  27.21138624598803    
_TOHERTZ=  6579683920501656.    
_TOHZ=  6579683920501656.    
_TOK=  315775.0248040668    
_TOKCAL=  627.5094740630558    
_TOKELVIN=  315775.0248040668    
_TOKJ=  2625.499639479825    
_TOKJOULE=  2625.499639479825    
_TOKG= 0.1660539066600000E-26
_ANG=  1.889726124625770    
_ANGSTROM=  1.889726124625770    
_RPAREF=  0.000000000000000    
_RPADISS=  0.000000000000000    
_IGNORE_UNDEF=  2.000000000000000    
_STRICTCHECK=  0.000000000000000    
!SEWARD=  0.000000000000000    
!MULTI=  0.000000000000000    
!DFMULTI=  0.000000000000000    
_SEW_ONEEL=  0.000000000000000    
_CPPDONE=FALSE
_DKROLL_DONE=  0.000000000000000    
_FNUC_DONE=  0.000000000000000    
_FOCKDONE=TRUE
_GRADONE=FALSE
_HESSDONE=TRUE
_INTDONE=TRUE
_SCFDONE=TRUE
_MODUL_BLOCK=FALSE
_MODUL_SLATER=FALSE
_MODUL_MRCC=FALSE
_MODUL_NBO6=FALSE
_MODUL_NECI=FALSE
_MODUL_AIMS=TRUE
_MODUL_HDF5=FALSE
_MODUL_GECCO=FALSE
_ISWINDOWS=FALSE
_MRCC_EXEC=
_FITC_AO_SAVED=  0.000000000000000    
_FITC_MO_SAVED=  0.000000000000000    
_SHARED_FS=TRUE
_LSTYP=SEWARD
_INTYP=INTS
_GEOMTYP=ZMAT
_GRADTYP=ALASKA
_DIRECT=FALSE
_DKHO= -1.000000000000000    
_FNUC=  0.000000000000000    
_SYNCM=  0.000000000000000    
_BASIS=6-311G(D,P)
_ZCENTRE=MASS
_ZORIENT=  1.000000000000000    
_NELEC=  18.00000000000000    
!SPIN=  0.000000000000000    
_OPTCONV= 0.1590146123719856E-05
_QSDSTEP=  0.000000000000000    
_QSDIRC=  0.000000000000000    
_PROGRAM=FREQ
_CPUSTEP= 0.1000000000004775E-01
_SYSSTEP=  0.000000000000000    
_WALLSTEP= 0.4000000000000000E-01
!DFMP2=  0.000000000000000    
!DFSCF=  0.000000000000000    
!SCSGRD=  0.000000000000000    
_NCEN=  6.000000000000000    
_CPUTOT=  474.4200000000000    
_CPUCCSD= 0.6000000000000227E-01
_SYSCCSD=  0.000000000000000    
_WALLCCSD= 0.5999999493360519E-01
_CPUF12=  0.000000000000000    
_SYSF12=  0.000000000000000    
_WALLF12=  0.000000000000000    
_CPUF12B=  0.000000000000000    
_SYSF12B=  0.000000000000000    
_WALLF12B=  0.000000000000000    
_CPUTRANS= 0.3199999999999932    
_SYSTRANS= 0.9999999999999787E-02
_WALLTRANS= 0.2200000025331974    
_DFTEXFAC=  1.000000000000000    
_DMX= 0.5563972786259824E-06
_DMY=-0.5853393125340560    
_DMZ= 0.3615292674062687    
_DMX_SCF= 0.4312824796085694E-06
_DMY_SCF=-0.6211418189927339    
_DMZ_SCF= 0.4227371635375627    
_FREQUENCIES= 0.1967966780262777E-04
_HOMO=  9.100000000000000    
_EHOMO=-0.4468607679356807    
_LUMO=  10.10000000000000    
_ELUMO= 0.1536491028480533    
_EMP2= -115.4364026527293    
_EMP2_SING=-0.2337354547730577    
_EMP2_TRIP=-0.1278426001650528    
_EMP2_SCS= -115.4348536502882    
_ECSING=-0.2337354547730576    
_ECTRIP=-0.1278426001650529    
_ENERGC= -115.4364026527293    
_ENERG_CC=  0.000000000000000    
_ENERG_CV=  0.000000000000000    
_ENERG_VV=-0.3615780549381106    
_ENERGR= -115.0748245977912    
_ENERGY= -115.4364026527293    
_ENERGY_METHOD=MP2
_ENERGY_BASIS=6-311G(D,P)
_GEOMETRY_METHOD=
_GEOMETRY_BASIS=
_ENUC=  40.35172214661223    
_FREQSTEP=  37.00000000000000    
_GRADENERG= -115.4363782980074    
_GRADEXFAC=  9999.000000000000    
_GRADMETHOD=  8.000000000000000    
_NMRMETHOD=  0.000000000000000    
_NMRMAGNET=  0.000000000000000    
_GRADRECORD=TRUE
_VIRIAL= 0.8829763993706503E-02
!GRID_FREEZE= -1.000000000000000    
!NEESE_INDEX=  0.000000000000000    
_ITERATIONS=  1.000000000000000    
_LASTNELEC=  18.00000000000000    
_LASTSPIN=  0.000000000000000    
_LASTSYM=  1.000000000000000    
_MPP_PROG=  1.000000000000000    
_MSNSTATES=  0.000000000000000    
_RS2PHASE=  0.000000000000000    
_IPROC_MPP=  0.000000000000000    
_IPROC_MPPX=  0.000000000000000    
_NPROC_MPP=  4.000000000000000    
_NPROC_MPPX=  4.000000000000000    
_NPROC_SMP=  6.000000000000000    
_NUMSTEP=  0.000000000000000    
_OPTCONVMX= 0.1068746522181000E-05
_OPTCONVRMS= 0.6491744365868237E-06
_OPTGRAD= 0.1222995767808083E-06
_OPTGRADMX= 0.7699363901991774E-07
_OPTGRADRMS= 0.2882628669265146E-07
_OPTSTEP=  9.000000000000000    
_ORBITAL=  2100.200000000000    
_PI=  3.141592653589793    
_ECDIAG=-0.7510246340062698E-01
_EPDIAG=-0.7510246340062698E-01
_SEIG_MIN= 0.8936713083259886E-02
_SEWPROP=TRUE
_STATUS=  1.000000000000000    
_SYSTOT=  4.779999999999999    
_T1DIAG=  0.000000000000000    
_VERSION=  2022003.000000000    
_WALLTOT=  388.1400000000000    
_ZPE= 0.5236553227038286E-01
_DATE=27-Aug-25
_LASTORB=0
_METHODC=MP2
_OUTPUT=/home/lme/overlap_integral_gaussian/molpro_files/methanol/mp2/methanol_mp2.out
_PGROUP=C1
_TIME=08:35:42
_ANSATZ=
_LIBMOL=/usr/local/molpro/molpro_2022.3.0_sockets/lib/
_VIGRDC=  0.000000000000000    
!VIBCNT=  0.000000000000000    
!RGHFCNT=  0.000000000000000    
!SURFREC=  0.000000000000000    
!XSURFREC=  0.000000000000000    
!XPOLYREC=  0.000000000000000    
!ROTREC=  0.000000000000000    
!POLYREC=  0.000000000000000    
!DIPREC=  0.000000000000000    
!DIP4DREC=  0.000000000000000    
!DIPROT=  0.000000000000000    
!DIP4DROT=  0.000000000000000    
!PTREC=  0.000000000000000    
!PT4DREC=  0.000000000000000    
!VSCFREC=  0.000000000000000    
!VCIREC=  0.000000000000000    
!PVCIREC=  0.000000000000000    
!VMP2REC=  0.000000000000000    
!VMCSCFREC=  0.000000000000000    
!VMRCIREC=  0.000000000000000    
!VIBSTATEREC=  0.000000000000000    
!VIBSTATECNT=  0.000000000000000    
!VIBINFO=  0.000000000000000    
!GAREC=  0.000000000000000    
!SCFORB=  21002.00000000000    
!CIOCC=  9.000000000000000    
!CICORE=  2.000000000000000    
!DEFCORE=  2.000000000000000    
!SCORE=  0.000000000000000    
!CICLOS=  9.000000000000000    
!CIISTSYM=  1.000000000000000    
!CIISTMS2=  0.000000000000000    
!CIISTNEL=  14.00000000000000    
!NEWMOL= -1.000000000000000    
!NEWSYM= -1.000000000000000    
_SLFILES=slscratch
_NGSSTO=  9.000000000000000    
_SIN=SIN
_COS=COS
_TAN=TAN
_ACOS=ACOS
_ASIN=ASIN
_ATAN=ATAN
_COSH=COSH
_SINH=SINH
_TANH=TANH
_ABS=ABS
_MOD=MOD
_ERF=ERF
_REFC=REFC
_ERFC=ERFC
_HYPOT=HYPOT
_J0=J0
_J1=J1
_JN=JN
_GAMMA=GAMMA
_LGAMMA=LGAMMA
_Y0=Y0
_Y1=Y1
_YN=YN
_EXP=EXP
_LOG=LOG
_LOG10=LOG10
_SQRT=SQRT
_INT=INT
_NINT=NINT
_MAX=MAX
_MIN=MIN
_COSMO=  0.000000000000000    
_COSMOIT=  0.000000000000000    
_COSMOES=  0.000000000000000    
_COSMOEDS=  0.000000000000000    
_COSMOEC=  0.000000000000000    
_COSMOEDCORR=  0.000000000000000    
_FEPSI=  1.000000000000000    
_SL_IsMM=  0.000000000000000    
_SL_NSYM=  1.000000000000000    
_SL_System_BitSw=  0.000000000000000    
_SL_Unique_atoms=  0.000000000000000    
_SL_GRAD=  0.000000000000000    
_SL_MAXUPD_Hess=  5.000000000000000    
_SL_N_PRINT_COD=  5.000000000000000    
_SL_PRINT_CODES=  0.000000000000000    
_SL_BasType=  0.000000000000000    
_SL_Energy_Pred=  0.000000000000000    
_SL_New_Coords=  0.000000000000000    
_SL_Total_Nuclea=  0.000000000000000    
_SL_Highest_Mltp=  0.000000000000000    
_SL_Ref_Geom=  0.000000000000000    
_SL_Symmetry_ope=  1.000000000000000    
_SL_agrad=  0.000000000000000    
_SL_GrdMax=  0.000000000000000    
_SL_GrdNorm=  0.000000000000000    
_SL_GrdRMS=  0.000000000000000    
_SL_Hss_Q=  0.000000000000000    
_SL_Hss_X=  0.000000000000000    
_SL_BMxOld=  0.000000000000000    
_SL_KtB=  0.000000000000000    
_SL_TROld=  0.000000000000000    
_SL_No_of_Intern=  0.000000000000000    
_SL_Hess=  0.000000000000000    
_SL_K=  0.000000000000000    
!LATTICE= -1.000000000000000    
!NEWLATTICE=  0.000000000000000    
!LATGRAD_VAR=FALSE
!SEW_LATTICE=  1.000000000000000    
!AIC_ONEEL=  0.000000000000000    
!LOCAL=  0.000000000000000    
!SAVEDOM= -1.000000000000000    
!RESTDOM= -1.000000000000000    
!SAVEDOM_HF= -1.000000000000000    
!RESTDOM_HF= -1.000000000000000    
!HESSREC=  5300.200000000000    
!FREQREC=  5400.200000000000    
!NMODREC=  5450.200000000000    
!GTASKS=  0.000000000000000    
!HTASKS=  0.000000000000000    
!SAVEDOM_EOM= -1.000000000000000    
!RESTDOM_EOM= -1.000000000000000    
!GRADSTATE= -1.000000000000000    
!DEBUG=  0.000000000000000    
!CFIT_CPHF=  0.000000000000000    
!RDOMAUX_CPHF=  0.000000000000000    
!THRAO_CPHF= 0.1000000000000000E-11
!THRMO_CPHF= 0.1000000000000000E-11
!THROV_CPHF= 0.1000000000000000E-11
!THRSW_CPHF= 0.1000000000000000E-11
!THRPROD_CPHF= 0.1000000000000000E-11
!THRAOPR_CPHF= 0.1000000000000000E-11
!CFIT_SCFGRD=  0.000000000000000    
!RDOMAUX_SCFGRD=  0.000000000000000    
!THRAO_SCFGRD= 0.1000000000000000E-11
!THRMO_SCFGRD= 0.1000000000000000E-11
!THROV_SCFGRD= 0.1000000000000000E-11
!THRSW_SCFGRD= 0.1000000000000000E-11
!THRPROD_SCFGRD= 0.1000000000000000E-11
!THRAOPR_SCFGRD= 0.1000000000000000E-11
!LOCFIT_SCF=  0.000000000000000    
!LOCFIT_MP2=  0.000000000000000    
_RIDOM=  0.000000000000000    
!CC2_METHOD=  0.000000000000000    
_BASIS2006=FALSE
_SVDDEL= -1.000000000000000    
_SVDDELA= -1.000000000000000    
_SVDDELP= -1.000000000000000    
_SVDDELF= -1.000000000000000    
_SVDDELS= -1.000000000000000    
_SVDDEL_ABS= -1.000000000000000    
_SVDDELA_ABS= -1.000000000000000    
_SVDDELP_ABS= -1.000000000000000    
_SVDDELF_ABS= -1.000000000000000    
_SVDDELS_ABS= -1.000000000000000    
_MAXBASIS=  0.000000000000000    
!OPT_CONICAL=  0.000000000000000    
!CLEARSP_JGRID=  0.000000000000000    
_GRDHYBR=  0.000000000000000    
_STATEGRAD=  1.000000000000000    
_4EXT_NDISKS=  1.000000000000000    
!EMBEDFLAG=  1.000000000000000    
!EMBED=FALSE
!EMBED_F12=FALSE
!EMBEDNUC=  0.000000000000000    
_EMBEDENERGY=  0.000000000000000    
!EMBED_DFC=FALSE
!NUM_VOIDS=  0.000000000000000    
_IBODY=  0.000000000000000    
_EMBE_CORR=  0.000000000000000    
!EMBED_PROJ=FALSE
!EMB_PROJ_ZMU=  1000000.000000000    
!CORRECTION_HF=  0.000000000000000    
!EMBED_AORB=  0.000000000000000    
!EMBED_NACORR=  0.000000000000000    
!EMBED_MP2=FALSE
!EMBED_TRUNC_PERTURBATION=FALSE
!EMBED_FROZEN=  0.000000000000000    
!EMBED_ACTIVE=  0.000000000000000    
_CHANGE_BASIS=FALSE
_RESTORE_BASIS=FALSE
_FIX_EMBED_GUESS=FALSE
_EMBED_SCF=FALSE
_HUZINAGA_T=FALSE
_HUZINAGA_F=FALSE
_HUZINAGA=FALSE
_HUZINAGA_CORRECT=FALSE
!FASTLATGRAD=  1.000000000000000    
!FASTVLAMBDA= -1.000000000000000    
!IFORCE= -1.000000000000000    
!USESYM= -1.000000000000000    
_SINDEX=  0.000000000000000    
_AVDOM_OSV=  0.000000000000000    
_AVDOM_PNO=  0.000000000000000    
_AVDOM_PAO=  0.000000000000000    
_AVDOM_LMO=  0.000000000000000    
_CC2OSV_FLAG=  0.000000000000000    
_EOMCCSD_CONV=FALSE
_TMADC2_FLAG=FALSE
_PROPADC2_FLAG=FALSE
_LEN_VirQ=  0.000000000000000    
_GRDCC2LR_FLAG=FALSE
_GRDADC2_FLAG=FALSE
_RO_VGLOBAL=  0.000000000000000    
_OPT=FALSE
_FREQ=FALSE
_HESS=FALSE
_CMRCC_callName=EMPTY
_CMRCC_callCount=  0.000000000000000    
_GECCO_CIROOT=  1.000000000000000    
_SYM_CATION=  1.000000000000000    
_MON_A=FALSE
_MON_B=FALSE
GX1= 0.1193700716841446E-04
GY1=  1.012815949954197    
GZ1=  1.096681947347495    
GX2=-0.2614595268381982E-07
GY2=-0.1223737326598613E-01
GZ2= 0.7252909107537135    
GX3= 0.8913870429922213    
GY3=-0.5176830537468347    
GZ3=  1.117490723844970    
GX4=-0.8913981925828005    
GY4=-0.5176628269574403    
GZ4=  1.117491624953704    
GX5=-0.1642351274583330E-07
GY5= 0.6351261417170284E-01
GZ5=-0.6904462547864314    
GX6=-0.2154482013082590E-06
GY6=-0.8397527754233926    
GZ6= -1.009698899275207    
HX1= 0.2255767429599868E-04
HY1=  1.913944760066112    
HZ1=  2.072428526308025    
CX2=-0.4940868983906466E-07
CY2=-0.2312528395753097E-01
CZ2=  1.370601182004910    
HX3=  1.684477382295315    
HY3=-0.9782791909414401    
HZ3=  2.111751414876802    
HX4= -1.684498451967912    
HY4=-0.9782409678491042    
HZ4=  2.111753117725517    
OX5=-0.3103594109314656E-07
OY5= 0.1200214462435438    
OZ5= -1.304754325319940    
HX6=-0.4071380945150701E-06
HY6= -1.586902757944582    
HZ6= -1.908054387966243    
[Atoms] Angs
H     1    1         0.0000119370        1.0128159500        1.0966819473
C     2    6        -0.0000000261       -0.0122373733        0.7252909108
H     3    1         0.8913870430       -0.5176830537        1.1174907238
H     4    1        -0.8913981926       -0.5176628270        1.1174916250
O     5    8        -0.0000000164        0.0635126142       -0.6904462548
H     6    1        -0.0000002154       -0.8397527754       -1.0096988993
[GTO]
   1 0
 s    3  1.00
  0.3386500000D+02  0.2549381454D-01
  0.5094790000D+01  0.1903731086D+00
  0.1158790000D+01  0.8521614860D+00
 s    1  1.00
  0.3258400000D+00  0.1000000000D+01
 s    1  1.00
  0.1027410000D+00  0.1000000000D+01
 p    1  1.00
  0.7500000000D+00  0.1000000000D+01
  
   2 0
 s    6  1.00
  0.4563240000D+04  0.1966650249D-02
  0.6820240000D+03  0.1523060193D-01
  0.1549730000D+03  0.7612690966D-01
  0.4445530000D+02  0.2608010331D+00
  0.1302900000D+02  0.6164620782D+00
  0.1827730000D+01  0.2210060280D+00
 s    3  1.00
  0.2096420000D+02  0.1146600807D+00
  0.4803310000D+01  0.9199996477D+00
  0.1459330000D+01 -0.3030682134D-02
 s    1  1.00
  0.4834560000D+00  0.1000000000D+01
 s    1  1.00
  0.1455850000D+00  0.1000000000D+01
 p    3  1.00
  0.2096420000D+02  0.4024869267D-01
  0.4803310000D+01  0.2375939567D+00
  0.1459330000D+01  0.8158538515D+00
 p    1  1.00
  0.4834560000D+00  0.1000000000D+01
 p    1  1.00
  0.1455850000D+00  0.1000000000D+01
 d    1  1.00
  0.6260000000D+00  0.1000000000D+01
  
   3 0
 s    3  1.00
  0.3386500000D+02  0.2549381454D-01
  0.5094790000D+01  0.1903731086D+00
  0.1158790000D+01  0.8521614860D+00
 s    1  1.00
  0.3258400000D+00  0.1000000000D+01
 s    1  1.00
  0.1027410000D+00  0.1000000000D+01
 p    1  1.00
  0.7500000000D+00  0.1000000000D+01
  
   4 0
 s    3  1.00
  0.3386500000D+02  0.2549381454D-01
  0.5094790000D+01  0.1903731086D+00
  0.1158790000D+01  0.8521614860D+00
 s    1  1.00
  0.3258400000D+00  0.1000000000D+01
 s    1  1.00
  0.1027410000D+00  0.1000000000D+01
 p    1  1.00
  0.7500000000D+00  0.1000000000D+01
  
   5 0
 s    6  1.00
  0.8588500000D+04  0.1895150083D-02
  0.1297230000D+04  0.1438590063D-01
  0.2992960000D+03  0.7073200310D-01
  0.8737710000D+02  0.2400010105D+00
  0.2567890000D+02  0.5947970261D+00
  0.3740040000D+01  0.2808020123D+00
 s    3  1.00
  0.4211750000D+02  0.1138890124D+00
  0.9628370000D+01  0.9208111006D+00
  0.2853320000D+01 -0.3274470358D-02
 s    1  1.00
  0.9056610000D+00  0.1000000000D+01
 s    1  1.00
  0.2556110000D+00  0.1000000000D+01
 p    3  1.00
  0.4211750000D+02  0.3651139738D-01
  0.9628370000D+01  0.2371529830D+00
  0.2853320000D+01  0.8197019412D+00
 p    1  1.00
  0.9056610000D+00  0.1000000000D+01
 p    1  1.00
  0.2556110000D+00  0.1000000000D+01
 d    1  1.00
  0.1292000000D+01  0.1000000000D+01
  
   6 0
 s    3  1.00
  0.3386500000D+02  0.2549381454D-01
  0.5094790000D+01  0.1903731086D+00
  0.1158790000D+01  0.8521614860D+00
 s    1  1.00
  0.3258400000D+00  0.1000000000D+01
 s    1  1.00
  0.1027410000D+00  0.1000000000D+01
 p    1  1.00
  0.7500000000D+00  0.1000000000D+01


[MO]
 Sym=      1.1
 Ene=     -20.5457
 Spin= Alpha
 Occup=    2.000000
1 0.000029664075155
2 -0.000123458512818
3 -0.000047619976472
4 -0.000000000152594
5 -0.000015802952201
6 0.000000190774865
7 -0.000002714463809
8 -0.000031734179673
9 0.000085689513202
10 0.000509905113356
11 0.000000000093509
12 0.000014670974139
13 -0.000023203569195
14 -0.000000000491179
15 -0.000033183033250
16 -0.000266217575327
17 0.000000000893549
18 0.000147720173879
19 -0.000196239724259
20 -0.000057749791119
21 -0.000081165498106
22 0.000138915289225
23 0.000000000061592
24 -0.000000000072474
25 0.000017545230245
26 0.000009706436071
27 -0.000048681232662
28 -0.000000929752442
29 -0.000018827155816
30 -0.000010391999266
31 0.000023788875046
32 0.000009706283823
33 -0.000048682112008
34 -0.000000929246517
35 0.000018826734056
36 -0.000010392587092
37 0.000023788675255
38 0.55146122143008
39 0.47167566487086
40 0.005560633124874
41 -0.000801679653092
42 -0.000000001080539
43 -0.001495152793607
44 0.000970674460712
45 0.000000000510216
46 0.000570379219004
47 -0.000347406965738
48 -0.000000000278350
49 -0.000125378517165
50 -0.000155958847414
51 0.000165600452153
52 -0.000024032673386
53 -0.000141567778767
54 -0.000000000143046
55 0.000000000026544
56 -0.000045973323993
57 0.000209002138048
58 0.000111717411791
59 0.000064608913999
60 -0.000000000027054
61 0.000073264780123
62 0.000081059567608
 Sym=      2.1
 Ene=     -11.2704
 Spin= Alpha
 Occup=    2.000000
1 0.000337309144760
2 0.000072925073578
3 0.000275047758303
4 0.000000000340293
5 0.000027945736185
6 -0.000028772340371
7 0.56347049360601
8 0.46656774611922
9 0.004004068723991
10 -0.001208835903416
11 0.000000000325785
12 -0.000055548553364
13 -0.000927389739036
14 0.000000000374392
15 0.000049093421088
16 0.000726974571320
17 -0.000000000224226
18 -0.000037392797372
19 -0.000130516157830
20 0.000107697309261
21 0.000163076447062
22 -0.000270773756322
23 0.000000000647064
24 -0.000000000070247
25 0.000032754575236
26 0.000340757194631
27 0.000104794777526
28 0.000242454588717
29 0.000005974142687
30 -0.000004181340860
31 -0.000039119597329
32 0.000340757090111
33 0.000104794585456
34 0.000242454814784
35 -0.000005974324957
36 -0.000004181311706
37 -0.000039119525679
38 -0.000068082214083
39 -0.000122220050542
40 0.000277513690432
41 0.000354723182792
42 0.000000000002200
43 -0.000012645538036
44 0.000099824720457
45 -0.000000000048910
46 -0.000011102737245
47 0.000537321033984
48 -0.000000000061778
49 -0.000019806230261
50 0.000155388740710
51 -0.000102903981449
52 -0.000119959391851
53 0.000222863373299
54 -0.000000000002305
55 -0.000000000071196
56 -0.000045317912321
57 -0.000014308815491
58 0.000023359408350
59 -0.000026828032726
60 0.000000000034783
61 0.000041728443150
62 0.000018225165894
 Sym=      3.1
 Ene=      -1.3539
 Spin= Alpha
 Occup=    2.000000
1 0.014713643330958
2 0.031245044813326
3 0.001142032625785
4 -0.000000089971315
5 -0.007660670801933
6 -0.003491450431208
7 -0.036983254127045
8 -0.060481096300458
9 0.15131295117569
10 0.003935046277866
11 0.000000006331025
12 0.000294402948798
13 -0.039776760718212
14 0.000000013970643
15 -0.000409573070319
16 -0.079600249481353
17 -0.000000028742107
18 -0.004853345789566
19 0.004107881196323
20 -0.014288981233891
21 -0.013412150745917
22 0.027701131979808
23 -0.000000003730864
24 0.000000005790424
25 0.000227932569755
26 0.014482749326475
27 0.029449776127466
28 -0.001021198255494
29 -0.006518758444010
30 0.003901568244023
31 -0.004163218929174
32 0.014482724801394
33 0.029449763770544
34 -0.001021206296768
35 0.006518847434241
36 0.003901423773402
37 -0.004163225458144
38 -0.10966428053542
39 -0.18321306153549
40 0.52029729518425
41 0.39342549260137
42 -0.000000002005215
43 -0.028030048175315
44 0.020264002987243
45 -0.000000008003466
46 -0.048118497892359
47 0.037479831378270
48 0.000000003538389
49 -0.017152260241767
50 0.029331797427093
51 -0.007814999895735
52 0.003175991653549
53 0.004639008242187
54 0.000000002332909
55 -0.000000000244186
56 0.001258018638019
57 0.088861657576020
58 0.074329899921400
59 -0.000764817642027
60 0.000000002696120
61 0.023767291412182
62 0.011551543789895
 Sym=      4.1
 Ene=      -0.9220
 Spin= Alpha
 Occup=    2.000000
1 0.087006222268428
2 0.12551801515755
3 0.007695990125201
4 -0.000000236558079
5 -0.020145509715276
6 -0.004887290027991
7 -0.094753587559773
8 -0.15752759729975
9 0.41067130514058
10 0.24834493244480
11 0.000000052303047
12 0.005452522214047
13 0.031338762077264
14 0.000000078768793
15 0.008639591704628
16 0.028497298995602
17 -0.000000051915242
18 -0.007335227871827
19 0.024916282667899
20 -0.000207970815127
21 0.002063224278319
22 -0.001855253463192
23 0.000000012239208
24 -0.000000001782783
25 -0.001808701728047
26 0.083290762301311
27 0.11623053908975
28 0.003936374513993
29 -0.016459280010591
30 0.009837021768855
31 -0.005581979802902
32 0.083290764034729
33 0.11623052613829
34 0.003936324059262
35 0.016459505665275
36 0.009836655552185
37 -0.005581980766031
38 0.031572503699424
39 0.053078151088286
40 -0.15386255913816
41 -0.14803471121842
42 0.000000022238714
43 0.031918943009866
44 0.079177036579778
45 0.000000032635519
46 0.051818038030358
47 0.12645429226113
48 0.000000032836666
49 0.019762417956999
50 0.070507821720062
51 -0.001281950138047
52 -0.010345151615746
53 0.011627101753794
54 -0.000000003234990
55 0.000000000197698
56 -0.005875546171291
57 -0.069194712681503
58 -0.082590500074623
59 -0.013335439444614
60 0.000000001422240
61 -0.016326075860109
62 -0.001028999548599
 Sym=      5.1
 Ene=      -0.6872
 Spin= Alpha
 Occup=    2.000000
1 0.031823956285399
2 0.037551796458179
3 0.012342619797845
4 -0.000000071013258
5 -0.001455733147888
6 -0.002792813402344
7 0.010842097739387
8 0.017499560292121
9 -0.041300077695452
10 -0.057527218812924
11 -0.000000005454354
12 0.090471398627741
13 -0.077433322573405
14 0.000000002243041
15 0.15144976611770
16 -0.13318278752995
17 0.000000159709523
18 0.091363522266519
19 -0.051807019340853
20 -0.023243613736265
21 -0.002271524792764
22 0.025515138529029
23 0.000000437115381
24 0.000000013015759
25 -0.010447738633081
26 -0.065426162950737
27 -0.088467986129954
28 -0.023723413695570
29 0.008105743306832
30 -0.000171928997019
31 -0.000478139977193
32 -0.065424901761023
33 -0.088466131274054
34 -0.023722732848591
35 -0.008105664310012
36 -0.000171661478003
37 -0.000478208366309
38 -0.021937686583558
39 -0.037355550473755
40 0.11460010063135
41 0.16825004249578
42 0.000000009686826
43 0.17212390403232
44 0.086693819788801
45 0.000000019421378
46 0.26423806439507
47 0.13763797945780
48 -0.000000028170439
49 0.17885934995866
50 0.080719930206798
51 0.005081409927339
52 -0.019684853069771
53 0.014603443142432
54 -0.000000006003129
55 -0.000000004813078
56 0.000299388507130
57 -0.13491780758466
58 -0.20687930380996
59 -0.039087033951021
60 -0.000000009101883
61 -0.025499656101307
62 -0.012643061226188
 Sym=      6.1
 Ene=      -0.6167
 Spin= Alpha
 Occup=    2.000000
1 0.000001297262932
2 0.000001830252370
3 0.000000553197394
4 0.008845181905386
5 -0.000000219117881
6 -0.000000043769508
7 0.000000030242836
8 0.000000051384329
9 -0.000000136446409
10 -0.000000255540835
11 0.16207785085661
12 -0.000000098086995
13 -0.000000174325233
14 0.26290623364882
15 -0.000000151752929
16 -0.000000315589809
17 0.15119942784694
18 0.000000152155328
19 -0.000000179131324
20 -0.000000658244830
21 0.000000634895072
22 0.000000023349758
23 -0.022908037152825
24 -0.000591870554969
25 0.000000017418526
26 0.10872723362738
27 0.16298865446098
28 0.065020289198045
29 -0.007326199044126
30 0.008280628566030
31 -0.004994802475084
32 -0.10872865205444
33 -0.16299049696922
34 -0.065020864198398
35 -0.007326565257352
36 -0.008280389246400
37 0.004994817549241
38 0.000000016099659
39 0.000000027346766
40 -0.000000076807775
41 -0.000000166439443
42 0.15508557292102
43 -0.000000057703863
44 0.000000158503189
45 0.24147884114129
46 -0.000000074410850
47 0.000000238018072
48 0.21012681216188
49 -0.000000097931680
50 0.000000194410077
51 -0.000000012704914
52 0.000000000231419
53 0.000000012473495
54 -0.007913820142922
55 0.011952653839483
56 -0.000000016449916
57 -0.000000044049216
58 0.000000007091896
59 -0.000000030991748
60 0.016490860878250
61 -0.000000011929044
62 0.000000040875234
 Sym=      7.1
 Ene=      -0.5884
 Spin= Alpha
 Occup=    2.000000
1 -0.12227083336332
2 -0.16818439200145
3 -0.061880491650662
4 0.000000173388846
5 0.010256737905934
6 -0.001298010408631
7 -0.000682501371126
8 -0.002017343190838
9 0.008443839910067
10 -0.017492104327200
11 -0.000000192390666
12 -0.10283576577729
13 -0.12559902812430
14 -0.000000304126777
15 -0.16778001426061
16 -0.22299832307556
17 -0.000000399946889
18 -0.12768241614070
19 -0.10451537148045
20 -0.007408921589292
21 -0.033342400660986
22 0.040751322250278
23 -0.000000532864799
24 0.000000006043594
25 -0.004512691848078
26 0.002053826151567
27 0.002597752237871
28 0.000111409362882
29 -0.001884323125343
30 -0.003332242728698
31 -0.005428007495247
32 0.002052364216426
33 0.002595560492092
34 0.000110367409740
35 0.001884153081564
36 -0.003332372765896
37 -0.005427929388513
38 0.014890813144274
39 0.025214014545457
40 -0.075926113201896
41 -0.11262441464582
42 -0.000000216985387
43 -0.057464878128096
44 0.18115921042306
45 -0.000000344064573
46 -0.087771634919273
47 0.28073219802579
48 -0.000000268161260
49 -0.081500832989401
50 0.22871780049471
51 -0.006674491234257
52 -0.005488631802000
53 0.012163123036257
54 0.000000004471952
55 -0.000000020716617
56 -0.017121814656157
57 -0.029201093976169
58 -0.034208382398347
59 -0.042868682309352
60 -0.000000015709482
61 -0.010112348971301
62 0.018282494636434
 Sym=      8.1
 Ene=      -0.5008
 Spin= Alpha
 Occup=    2.000000
1 -0.11681030225534
2 -0.22212541719101
3 -0.081451100048458
4 0.000000279776006
5 0.014168406266581
6 0.009168799982384
7 0.004443970541920
8 0.007728172278131
9 -0.024380369450926
10 0.017405764483397
11 0.000000002981684
12 -0.14001008371007
13 0.040290968551696
14 -0.000000006686951
15 -0.21689099975599
16 0.075790492178658
17 0.000000008620497
18 -0.11851539557104
19 0.012268800384243
20 0.023607533089204
21 -0.010528932433647
22 -0.013078600655557
23 -0.000000675148057
24 -0.000000006147115
25 -0.030716965469878
26 0.072834874078449
27 0.12262565877237
28 0.064084054123300
29 -0.009960956302130
30 -0.004917144260527
31 -0.001141551839004
32 0.072832336641224
33 0.12262098044649
34 0.064082031043515
35 0.009960652655446
36 -0.004917577139856
37 -0.001141403805546
38 -0.024963069610249
39 -0.042435138752976
40 0.12831632972602
41 0.21824389850021
42 -0.000000089864961
43 0.16481728985726
44 -0.080474792674871
45 -0.000000141663681
46 0.24463082686197
47 -0.11972011819833
48 -0.000000139569118
49 0.22717708998758
50 -0.13929148475533
51 0.010053717122575
52 -0.009769705945816
53 -0.000284011176759
54 -0.000000022548930
55 -0.000000003060409
56 0.000907079338250
57 -0.084465120062326
58 -0.15908853470773
59 -0.033837172320638
60 0.000000013214917
61 -0.012279781655771
62 -0.018865427888588
 Sym=      9.1
 Ene=      -0.4469
 Spin= Alpha
 Occup=    2.000000
1 -0.000001295823831
2 -0.000002584099180
3 -0.000001186118713
4 -0.008271079698012
5 0.000000252008758
6 0.000000072830689
7 -0.000000005032765
8 -0.000000009548764
9 0.000000038258567
10 -0.000000001423102
11 -0.10472679731923
12 -0.000000105135364
13 0.000000019616639
14 -0.16108515769102
15 -0.000000164951284
16 0.000000062138871
17 -0.081044940998121
18 -0.000000052771034
19 0.000000010325930
20 0.000000445545734
21 -0.000000466349915
22 0.000000020804182
23 0.016255585822072
24 -0.037531841445024
25 -0.000000018567797
26 -0.093452886471264
27 -0.18997449719148
28 -0.083379228869295
29 0.006921356809419
30 -0.007931709576669
31 0.005639593185599
32 0.093454126147322
33 0.18997696473586
34 0.083380432411103
35 0.006921754546895
36 0.007931445102473
37 -0.005639666813949
38 -0.000000021779982
39 -0.000000036784518
40 0.000000094782724
41 0.000000364724451
42 0.24837198170250
43 -0.000000014953777
44 0.000000032187341
45 0.37291966730116
46 -0.000000040724759
47 0.000000051051402
48 0.41393201966880
49 -0.000000164525013
50 0.000000019496132
51 0.000000009109628
52 -0.000000010758284
53 0.000000001648656
54 -0.010794885422932
55 0.003897459140513
56 -0.000000009046454
57 -0.000000066483056
58 -0.000000361791532
59 -0.000000059667651
60 0.026002876061096
61 -0.000000034844426
62 -0.000000047012751
 Sym=     10.1
 Ene=       0.1536
 Spin= Alpha
 Occup=    0.000000
1 0.002492057272371
2 0.047476878681882
3 0.44778753145299
4 -0.000000063019886
5 -0.005317111917491
6 -0.008777280849886
7 0.030487470563076
8 0.048523838377630
9 -0.018873265390485
10 -1.70373600143651
11 -0.000000305944410
12 0.020530173247704
13 -0.059861769104695
14 -0.000000197684523
15 0.015077164519660
16 -0.063321649152722
17 -0.000002503760199
18 0.15230613882387
19 -0.24192631149382
20 0.005057741495937
21 0.003061572866821
22 -0.008119314362758
23 -0.000000111109877
24 0.000000015173887
25 -0.006474628986509
26 0.003488377340909
27 0.010689728167074
28 0.79513983177615
29 0.000551183580899
30 -0.001916639346513
31 -0.006467828093778
32 0.003488305195566
33 0.010690364671590
34 0.79512952890918
35 -0.000551053670473
36 -0.001916532893133
37 -0.006467886386459
38 0.019240919264936
39 0.032067513192724
40 -0.080934295041509
41 -0.34638927565379
42 0.000000071361012
43 0.049669466399369
44 0.031434355996219
45 0.000000060156455
46 0.068700181312984
47 0.024051193730862
48 0.000000399134372
49 0.13084874882664
50 0.20807254863058
51 0.000504510851814
52 -0.002020183637637
53 0.001515672785823
54 -0.000000013965787
55 -0.000000012485730
56 0.001614956384676
57 0.030339732154492
58 -0.10074671581059
59 0.91606741915980
60 0.000000008655107
61 -0.010847455045724
62 -0.008084947438505
 Sym=     11.1
 Ene=       0.1884
 Spin= Alpha
 Occup=    0.000000
1 -0.012959503976193
2 0.076557979515482
3 -1.05962717054538
4 -0.000000087616320
5 -0.007252256970405
6 -0.008924511423992
7 -0.035732466450667
8 -0.058039407240840
9 0.087238991819512
10 1.23906174629001
11 -0.000000432696117
12 0.024976075552788
13 0.006765706949579
14 -0.000000262662535