
 Working directory              : /tmp/lme/molpro.WsUgVGI3zs/
 Global scratch directory       : /tmp/lme/molpro.WsUgVGI3zs/
 Wavefunction directory         : /home/lme/wfu/
 Main file repository           : /tmp/lme/molpro.WsUgVGI3zs/

 id        : liedlgroup

 Nodes     nprocs
 sv1-c724     4
 GA implementation: MPI file
 GA implementation (serial work in mppx): MPI file

 Using customized tuning parameters: mindgm=1; mindgv=20; mindgc=4; mindgr=1; noblas=0; minvec=7
 default implementation of scratch files=sf  


 Variables initialized (1025), CPU time= 0.01 sec
 memory, 200, m                                                                  ! Memory Requirements
 gthresh, optgrad=1.d-7,twoint=1.d-14,prefac=1.d-16                            ! Guntram Rezept um numerischen Schmutz zu entfernen
 orient,mass
 geometry = {
   H,      1.2001,      0.0363,      0.8431
   C,      0.7031,      0.0083,     -0.1305
   H,      0.9877,      0.8943,     -0.7114
   H,      1.0155,     -0.8918,     -0.6742
   O,     -0.6582,     -0.0067,      0.1730
   H,     -1.1326,     -0.0311,     -0.6482
 }
 
 mass, iso
 basis=6-311g(d,p)
 
 {hf
 start,atden}
 
 mp2
 
 optg
 {frequencies, symm=auto, print=0,analytical}
 put,molden,methanol_mp2.molden
 Commands initialized (840), CPU time= 0.01 sec, 684 directives.
 Default parameters read. Elapsed time= 0.33 sec

 Checking input...
 Passed
1


                                         ***  PROGRAM SYSTEM MOLPRO  ***
                                       Copyright, TTI GmbH Stuttgart, 2015
                                    Version 2022.3 linked Wed Nov 30 12:40:34 2022


 **********************************************************************************************************************************
 LABEL *                                                                                 
  (6 PROC) 64 bit mpp version                                                            DATE: 27-Aug-25          TIME: 08:35:42  
 **********************************************************************************************************************************

 SHA1:             e31ec9a5ea85254ab76f59d122cbdd51c71cf98b
 **********************************************************************************************************************************

 Memory per process:       200 MW
 Total memory per node:    800 MW

 GA preallocation disabled
 GA check disabled

 Variable memory set to 200.0 MW


 THRESHOLDS:

 ZERO    =  1.00D-12  ONEINT  =  1.00D-12  TWOINT  =  1.00D-14  PREFAC  =  1.00D-16  XXXXXX  =  1.00D-09  EORDER  =  1.00D-04
 ENERGY  =  0.00D+00  ETEST   =  0.00D+00  EDENS   =  0.00D+00  THRDEDEF=  1.00D-06  GRADIENT=  1.00D-05  STEP    =  1.00D-03
 ORBITAL =  1.00D-05  CIVEC   =  1.00D-05  COEFF   =  1.00D-04  PRINTCI =  5.00D-02  PUNCHCI =  9.90D+01  OPTGRAD =  1.00D-07
 OPTENERG=  1.00D-06  OPTSTEP =  3.00D-04  THRGRAD =  1.00D-10  COMPRESS=  1.00D-11  VARMIN  =  1.00D-07  VARMAX  =  1.00D-03
 THRDOUB =  0.00D+00  THRDIV  =  1.00D-05  THRRED  =  1.00D-07  THRPSP  =  1.00D+00  THRDC   =  1.00D-10  THRCS   =  1.00D-10
 THRNRM  =  1.00D-08  THREQ   =  0.00D+00  THRDE   =  1.00D+00  THRREF  =  1.00D-05  SPARFAC =  1.00D+00  THRDLP  =  1.00D-07
 THRDIA  =  1.00D-10  THRDLS  =  1.00D-07  THRGPS  =  0.00D+00  THRKEX  =  0.00D+00  THRDIS  =  2.00D-01  THRVAR  =  1.00D-10
 THRLOC  =  1.00D-06  THRGAP  =  1.00D-06  THRLOCT = -1.00D+00  THRGAPT = -1.00D+00  THRORB  =  1.00D-06  THRMLTP =  0.00D+00
 THRCPQCI=  1.00D-10  KEXTA   =  0.00D+00  THRCOARS=  0.00D+00  SYMTOL  =  1.00D-06  GRADTOL =  1.00D-06  THROVL  =  1.00D-08
 THRORTH =  1.00D-08  THRDLOVL= -1.00D+00  GRID    =  1.00D-06  GRIDMAX =  1.00D-03  DTMAX   =  0.00D+00  THROCCDE=  1.00D-01
 THROCCDE=  1.00D-01  THRPRINT=  2.50D-01

 ZCENTRE=MASS


 Geometry recognized as XYZ



 Using masses of most abundant isotopes

 **********************************************************************************************************************************
 SETTING BASIS          =    6-311G(D,P)


 Recomputing integrals since basis changed


 Using spherical harmonics

 Library entry H      S 6-311G               selected for orbital group  1
 Library entry H      P 6-311G**             selected for orbital group  1
 Library entry C      S 6-311G               selected for orbital group  2
 Library entry C      P 6-311G               selected for orbital group  2
 Library entry C      D 6-311G*              selected for orbital group  2
 Library entry O      S 6-311G               selected for orbital group  4
 Library entry O      P 6-311G               selected for orbital group  4
 Library entry O      D 6-311G*              selected for orbital group  4


 PROGRAM * SEWARD (Integral evaluation for generally contracted gaussian basis sets)     Author: Roland Lindh, 1990

 Geometry written to block  1 of record 700

 Orientation using atomic masses  
 Molecule type: Asymmetric top
 Rotational constants:      24.7464623     25.6941431    127.2825897 GHz

 Point group  C1  



 ATOMIC COORDINATES

 NR  ATOM    CHARGE       X              Y              Z

   1  H       1.00    0.000239186    1.946913765    1.973978834
   2  C       6.00   -0.000000496   -0.023460726    1.351475288
   3  H       1.00    1.687995551   -0.978637244    2.083501359
   4  H       1.00   -1.688384931   -0.978085799    2.083191979
   5  O       8.00    0.000012311    0.116672798   -1.280592288
   6  H       1.00   -0.000039283   -1.562529362   -1.908533718

 Bond lengths in Bohr (Angstrom)

 1-2  2.066370334  2-3  2.073054511  2-4  2.073007561  2-5  2.635795350  5-6  1.792771691
     ( 1.093476090)     ( 1.097013204)     ( 1.096988359)     ( 1.394802832)     ( 0.948693923)

 Bond angles

  1-2-3  109.44373761   1-2-4  109.44299419   1-2-5  104.48537341   2-5-6  107.45579790

  3-2-4  109.04794568   3-2-5  112.15464891   4-2-5  112.14557272

 NUCLEAR CHARGE:                   18
 NUMBER OF PRIMITIVE AOS:          96
 NUMBER OF SYMMETRY AOS:           94
 NUMBER OF CONTRACTIONS:           60   (   60A   )
 NUMBER OF INNER CORE ORBITALS:     0   (    0A   )
 NUMBER OF OUTER CORE ORBITALS:     2   (    2A   )
 NUMBER OF VALENCE ORBITALS:       12   (   12A   )


 NUCLEAR REPULSION ENERGY   40.79052691

 Eigenvalues of metric

         1 0.855E-02 0.203E-01 0.232E-01 0.237E-01 0.387E-01 0.440E-01 0.457E-01 0.578E-01


 Contracted 2-electron integrals neglected if value below      1.0D-14
 AO integral compression algorithm  1   Integral accuracy      1.0D-14

     14.156 MB (compressed) written to integral file ( 86.0%)

     Node minimum: 3.408 MB, node maximum: 3.670 MB


 NUMBER OF SORTED TWO-ELECTRON INTEGRALS:     418612.     BUFFER LENGTH:  32768
 NUMBER OF SEGMENTS:   1  SEGMENT LENGTH:     418612      RECORD LENGTH: 524288

 Memory used in sort:       0.98 MW

 SORT1 READ     2100581. AND WROTE      411911. INTEGRALS IN      2 RECORDS. CPU TIME:     0.08 SEC, REAL TIME:     0.10 SEC
 SORT2 READ     1648902. AND WROTE     1675365. INTEGRALS IN     56 RECORDS. CPU TIME:     0.03 SEC, REAL TIME:     0.03 SEC

 Node minimum:      418155.  Node maximum:      419528. integrals

 OPERATOR DM      FOR CENTER  0  COORDINATES:    0.000000    0.000000    0.000000


 **********************************************************************************************************************************
 DATASETS  * FILE   NREC   LENGTH (MB)   RECORD NAMES
              1      18       28.78       500      610      700      900      950      970     1000      129      960     1100   
                                          VAR    BASINP    GEOM    SYMINP    ZMAT    AOBASIS   BASIS     P2S    ABASIS      S 
                                         1400     1410     1200     1210     1080     1600     1650     1700   
                                           T        V       H0       H01     AOSYM     SMH    MOLCAS    OPER   

 PROGRAMS   *        TOTAL       INT
 CPU TIMES  *         0.94      0.53
 REAL TIME  *         1.45 SEC
 DISK USED  *        29.12 MB (local),      159.32 MB (total)
 GA USED    *         0.00 MB       (max)       0.00 MB       (current)
 **********************************************************************************************************************************


 Program * Restricted Hartree-Fock

 Orbital guess generated from atomic densities.

 Initial occupancy:   9

 NELEC=   18   SYM=1   MS2= 0   THRE=1.0D-08   THRD=1.0D-06   THRG=1.0D-06  HFMA2=F  DIIS_START=2   DIIS_MAX=10   DIIS_INCORE=F

 Level shifts:    0.00 (CLOSED)    0.00 (OPEN)    0.30 (GAP_MIN)

 ITER           ETOT              DE          GRAD        DDIFF     DIIS  NEXP   TIME(IT)  TIME(TOT)  DIAG
   1     -115.03873552    -115.03873552     0.00D+00     0.55D-01     0     0       0.03      0.21    start
   2     -115.06790423      -0.02916870     0.92D-02     0.67D-02     1     0       0.13      0.34    diag
   3     -115.07447430      -0.00657007     0.47D-02     0.22D-02     2     0       0.14      0.48    diag
   4     -115.07495475      -0.00048045     0.92D-03     0.74D-03     3     0       0.20      0.68    diag
   5     -115.07498231      -0.00002756     0.18D-03     0.23D-03     4     0       0.15      0.83    diag
   6     -115.07498327      -0.00000096     0.31D-04     0.45D-04     5     0       0.14      0.97    diag
   7     -115.07498331      -0.00000004     0.67D-05     0.67D-05     6     0       0.10      1.07    diag
   8     -115.07498331      -0.00000000     0.22D-05     0.21D-05     7     0       0.12      1.19    fixocc
   9     -115.07498331      -0.00000000     0.48D-06     0.62D-06     8     0       0.12      1.31    diag
  10     -115.07498331      -0.00000000     0.82D-07     0.95D-07     0     0       0.14      1.45    diag/orth

 Final occupancy:   9

 !RHF STATE 1.1 Energy               -115.074983312306
  RHF One-electron energy            -237.839572481981
  RHF Two-electron energy              81.974062264036
  RHF Kinetic energy                  115.077195569612
  RHF Nuclear energy                   40.790526905639
  RHF Virial quotient                  -0.999980775884

 !RHF STATE 1.1 Dipole moment          -0.00002271    -0.61703560     0.37998027
 Dipole moment /Debye                  -0.00005773    -1.56834807     0.96581352

 Orbital energies:

           1.1          2.1          3.1          4.1          5.1          6.1          7.1          8.1          9.1         10.1
    -20.543073   -11.268331    -1.363590    -0.921116    -0.694694    -0.620865    -0.591066    -0.498737    -0.444254     0.154104

          11.1
      0.190711


 HOMO      9.1    -0.444254 =     -12.0888eV
 LUMO     10.1     0.154104 =       4.1934eV
 LUMO-HOMO         0.598358 =      16.2822eV

 Orbitals saved in record  2100.2


 **********************************************************************************************************************************
 DATASETS  * FILE   NREC   LENGTH (MB)   RECORD NAMES
              1      18       28.78       500      610      700      900      950      970     1000      129      960     1100   
                                          VAR    BASINP    GEOM    SYMINP    ZMAT    AOBASIS   BASIS     P2S    ABASIS      S 
                                         1400     1410     1200     1210     1080     1600     1650     1700   
                                           T        V       H0       H01     AOSYM     SMH    MOLCAS    OPER   

              2       4        0.49       700     1000      520     2100   
                                         GEOM     BASIS   MCVARS     RHF  

 PROGRAMS   *        TOTAL    HF-SCF       INT
 CPU TIMES  *         2.42      1.47      0.53
 REAL TIME  *         2.63 SEC
 DISK USED  *        29.55 MB (local),      161.02 MB (total)
 GA USED    *         0.00 MB       (max)       0.00 MB       (current)
 **********************************************************************************************************************************


 PROGRAM * MP2 (Closed-shell)     Authors: C. Hampel, H.-J. Werner, 1991, M. Deegan, P.J. Knowles, 1992


 Convergence thresholds:  THRVAR = 1.00D-12  THRDEN = 1.00D-08

 Number of core orbitals:           2 (   2 )
 Number of closed-shell orbitals:   7 (   7 )
 Number of external orbitals:      51 (  51 )

 Molecular orbitals read from record     2100.2  Type=RHF/CANONICAL  

 Number of N-1 electron functions:               7
 Number of N-2 electron functions:              28
 Number of singly external CSFs:               357
 Number of doubly external CSFs:             63903
 Total number of CSFs:                       64261

 Length of J-op  integral file:               0.00 MB
 Length of K-op  integral file:               0.25 MB

 Integral transformation finished. Total CPU:   0.02 sec, npass=  1  Memory used:   0.29 MW

 Memory needed for MP2:                      0.02 MW

 SCS-MP2 correlation energy:           -0.358972999662   (PS=  1.200000  PT=  0.333333)
 SCS-MP2 total energy:               -115.433956311967


  Reference energy                   -115.074983312306
  MP2 singlet pair energy              -0.232955600616
  MP2 triplet pair energy              -0.127649376839
  MP2 correlation energy               -0.360604977456

 !MP2 total energy                   -115.435588289761

 KEXT needed  1 integral passes. Memory used:   0.26 MW  CPU time:      4.60 sec

 CPHF start vector      0.2 not found

 Starting Coupled-perturbed Hartree-Fock, convergence threshold= 1.0D-06

 ITER   MIC  DIIS      VAR         VARC       CPU
   1     0     1    0.26D-01    0.16D-02     0.01
   2     5     2    0.41D-03    0.74D-04     0.01
   3     4     3    0.85D-05    0.22D-05     0.01
   4     2     4    0.68D-06    0.15D-06     0.02

 CPHF convergence reached in  4 macroiterations and   11 microiterations.   Accuracy: 6.7687D-07

 CPHF solution written to record  4100.2

 Dipole moments (unrelaxed):           -0.00002281    -0.60652918     0.36767651
 Orbital relaxation contribution:       0.00000044     0.02435964    -0.04303751
 !MP2 STATE 1.1 Dipole moment          -0.00002237    -0.58216954     0.32463900
 Dipole moment /Debye                  -0.00005686    -1.47972737     0.82515004

 CPU-time for density and lagrangian:                  0.47 sec
 CPU-time for coupled-perturbed hartree-fock:          0.06 sec

 MP2 gradient info saved on record         5200.1


 **********************************************************************************************************************************
 DATASETS  * FILE   NREC   LENGTH (MB)   RECORD NAMES
              1      20       30.63       500      610      700      900      950      970     1000      129      960     1100   
                                          VAR    BASINP    GEOM    SYMINP    ZMAT    AOBASIS   BASIS     P2S    ABASIS      S 
                                         1400     1410     1200     1210     1080     1600     1650     1700     1380     5200   
                                           T        V       H0       H01     AOSYM     SMH    MOLCAS    OPER     JKOP      MP2  

              2       5        0.58       700     1000      520     2100     4100   
                                         GEOM     BASIS   MCVARS     RHF     CPHF   

 PROGRAMS   *        TOTAL       MP2    HF-SCF       INT
 CPU TIMES  *         7.98      5.54      1.47      0.53
 REAL TIME  *         8.45 SEC
 DISK USED  *        31.29 MB (local),      168.01 MB (total)
 SF USED    *         4.78 MB
 GA USED    *         0.00 MB       (max)       0.00 MB       (current)
 **********************************************************************************************************************************


 PROGRAM * OPT (Geometry optimization)     Authors: F. Eckert and H.-J. Werner


 BFGS update of hessian

 *** Long output written to logfile /home/lme/overlap_integral_gaussian/molpro_files/methanol/mp2/methanol_mp2.log ***


 Geometry optimization using default procedure for command MP2

 Geometry written to block  1 of record 700

 Entering BMAT geometry-optimization, modelhes=F
 Optimization method: RF

 ITER.   ENERGY(OLD)    ENERGY(NEW)      DE          GRADMAX     GRADNORM    GRADRMS     STEPMAX     STEPLEN     STEPRMS   CPU-time
   1  -115.43558829  -115.43636295    -0.00077466  0.01604425  0.02372559  0.00559218  0.05629570  0.09927585  0.04052920     14.34
   2  -115.43636295  -115.43640021    -0.00003726  0.00212743  0.00336901  0.00079408  0.01947008  0.02383912  0.00973228     28.24
   3  -115.43640021  -115.43640256    -0.00000235  0.00061633  0.00094295  0.00022225  0.00552368  0.00774668  0.00316257     40.81
   4  -115.43640256  -115.43640264    -0.00000007  0.00018334  0.00024909  0.00005871  0.00033440  0.00080697  0.00032944     55.18
   5  -115.43640264  -115.43640265    -0.00000001  0.00007937  0.00009594  0.00002261  0.00015804  0.00036533  0.00014915     67.34
   6  -115.43640265  -115.43640265     0.00000000  0.00000991  0.00001138  0.00000268  0.00002077  0.00003302  0.00001348     78.96
   7  -115.43640265  -115.43640265    -0.00000000  0.00000312  0.00000406  0.00000096  0.00000877  0.00001759  0.00000718     92.86
   8  -115.43640265  -115.43640265    -0.00000000  0.00000038  0.00000060  0.00000014  0.00000216  0.00000397  0.00000162    103.40
   9  -115.43640265  -115.43640265    -0.00000000  0.00000008  0.00000012  0.00000003  0.00000107  0.00000159  0.00000065    117.45

 END OF GEOMETRY OPTIMIZATION.

 Geometry written to block  1 of record 700

 Recomputing wavefunction for reoriented structure

 Current geometry (xyz format, in Angstrom)

    6
 MP2/6-311G(D,P)  ENERGY=-115.43640265
 H          0.0000119370        1.0128159500        1.0966819473
 C         -0.0000000261       -0.0122373733        0.7252909108
 H          0.8913870430       -0.5176830537        1.1174907238
 H         -0.8913981926       -0.5176628270        1.1174916250
 O         -0.0000000164        0.0635126142       -0.6904462548
 H         -0.0000002154       -0.8397527754       -1.0096988993

 **********************************************************************************************************************************


 **********************************************************************************************************************************
 DATASETS  * FILE   NREC   LENGTH (MB)   RECORD NAMES
              1      20       30.63       500      610      700      900      950      970     1000      129      960     1100   
                                          VAR    BASINP    GEOM    SYMINP    ZMAT    AOBASIS   BASIS     P2S    ABASIS      S 
                                         1400     1410     1200     1210     1080     1600     1650     1700     1380     5200   
                                           T        V       H0       H01     AOSYM     SMH    MOLCAS    OPER     JKOP      MP2  

              2       6        0.60       700     1000      520     2100     4100     9001   
                                         GEOM     BASIS   MCVARS     RHF     CPHF    DEN_MP2    

 PROGRAMS   *        TOTAL      OPTG       MP2    HF-SCF       INT
 CPU TIMES  *       137.09    129.10      5.54      1.47      0.53
 REAL TIME  *       115.04 SEC
 DISK USED  *        31.33 MB (local),      168.14 MB (total)
 SF USED    *         4.85 MB
 GA USED    *         0.00 MB       (max)       0.00 MB       (current)
 **********************************************************************************************************************************


 PROGRAM * HESSIAN

 Computing numerical hessian using default procedure for command MP2

 Using no symmetry in wavefunction calculations

 Running default procedure: HF-SCF000  MP2


 Numerically approximating hessian using central gradient differences

 Task list generated. Total number of displacements:     36


 Switching to mppx mode, nproc=  4

   19 tasks completed, CPU=3m 2s Elapsed=2m 26s

 All  36 tasks completed.  CPU=    329.55 sec, Elapsed=    265.41 sec.

 Switching back to mpp mode, nproc=  4


 MP2 hessian saved to record  5300.2

 PROGRAM * FREQUENCIES (Calculation of harmonic vibrational spectra for MP2)


 Permanent Dipole Moment [debye]
 1-3    0.000001   -1.487784    0.918916

 Dipole Moment Norm    1.7486874 [debye]

 Dipole Moment Derivatives [debye/ang]
              1             2             3             4             5             6             7             8
    1    0.30133355   -0.00001010   -0.00000119    1.95091439   -0.00000267   -0.00000865   -0.63345945    0.45049730
    2   -0.00001180   -0.57943678   -0.16600198   -0.00000210    1.34248459   -0.20872198    0.45030576   -0.04580417
    3   -0.00000442   -0.37301348    0.00364574   -0.00000219    0.10215589    3.84619610   -0.41663854    0.28981717
              9            10            11            12            13            14            15            16
    1   -0.25770530   -0.63347986   -0.45048403    0.25771042   -2.71172947    0.00000104    0.00000526    1.72609560
    2    0.11350585   -0.45029267   -0.04578638    0.11350150    0.00000519   -1.25203676    0.00341858   -0.00000439
    3   -0.39012500    0.41664671    0.28980828   -0.39012689   -0.00000093   -0.30313577   -4.31580471   -0.00000064
             17            18
    1   -0.00000153   -0.00000053
    2    0.58017566    0.14444347
    3   -0.00572391    1.24602430

 Projecting out rotations and translations

 Force Constants (Second Derivatives of the Energy) in [a.u.]
                             HX1         HY1         HZ1         CX2         CY2     
           HX1           0.0480529
           HY1           0.0000032   0.3234695
           HZ1           0.0000010   0.0920489   0.0958884
           CX2          -0.0523343  -0.0000030  -0.0000009   0.5812824
           CY2          -0.0000030  -0.3075351  -0.0712604   0.0000002   0.6263363
           CZ2          -0.0000010  -0.0848228  -0.0728444   0.0000000   0.0170475
           HX3           0.0010267  -0.0013898   0.0006466  -0.2323198   0.1001658
           HY3           0.0269063  -0.0123400   0.0095315   0.0989423  -0.1117135
           HZ3           0.0086090  -0.0040305   0.0049915  -0.0620435   0.0333059
           HX4           0.0010261   0.0013894  -0.0006464  -0.2323241  -0.1001630
           HY4          -0.0269066  -0.0123395   0.0095315  -0.0989395  -0.1117090
           HZ4          -0.0086091  -0.0040303   0.0049915   0.0620444   0.0333046
           OX5           0.0017640   0.0000001  -0.0000003  -0.0642385   0.0000001
           OY5           0.0000001   0.0061158  -0.0394432  -0.0000000  -0.0956891
           OZ5           0.0000000  -0.0005582  -0.0247582  -0.0000000   0.0327080
           HX6           0.0004646  -0.0000000  -0.0000001  -0.0000657  -0.0000001
           HY6           0.0000000   0.0026292  -0.0004082  -0.0000000   0.0003103
           HZ6           0.0000000   0.0013929  -0.0082689  -0.0000000  -0.0451057
                             CZ2         HX3         HY3         HZ3         HX4     
           CZ2           0.5055826
           HX3          -0.0646666   0.2434878
           HY3           0.0364198  -0.1097218   0.1108286
           HZ3          -0.0752583   0.0759545  -0.0442642   0.0939907
           HX4           0.0646675  -0.0214487  -0.0141600   0.0074892   0.2434926
           HY4           0.0364183   0.0141607   0.0083550  -0.0046060   0.1097187
           HZ4          -0.0752583  -0.0074893  -0.0046058   0.0059189  -0.0759557
           OX5           0.0000001   0.0093075  -0.0005311  -0.0297061   0.0093077
           OY5          -0.0154778  -0.0032672   0.0043627   0.0174583   0.0032671
           OZ5          -0.2591071  -0.0035383   0.0033748  -0.0312585   0.0035384
           HX6          -0.0000001  -0.0000535  -0.0014357  -0.0003032  -0.0000535
           HY6           0.0104150   0.0000522   0.0005073   0.0021365  -0.0000522
           HZ6          -0.0231146  -0.0009070  -0.0004560   0.0016155   0.0009070
                             HY4         HZ4         OX5         OY5         OZ5     
           HY4           0.1108236
           HZ4          -0.0442625   0.0939909
           OX5           0.0005311   0.0297064   0.0475475
           OY5           0.0043626   0.0174576  -0.0000000   0.5774486
           OZ5           0.0033748  -0.0312585  -0.0000001   0.1377321   0.4365473
           HX6           0.0014357   0.0003033  -0.0036882   0.0000000   0.0000001
           HY6           0.0005072   0.0021365  -0.0000001  -0.4966005  -0.1766314
           HZ6          -0.0004560   0.0016154  -0.0000000  -0.1177269  -0.0901650
                             HX6         HY6         HZ6     
           HX6           0.0033963
           HY6           0.0000001   0.4926465
           HZ6           0.0000000   0.1623517   0.1183175


 Atomic Masses
 1-6    1.007825   12.000000    1.007825    1.007825   15.994910    1.007825

 Mass weighted Second Derivative Matrix
                             HX1         HY1         HZ1         CX2         CY2     
           HX1           0.0476798
           HY1           0.0000032   0.3209580
           HZ1           0.0000010   0.0913343   0.0951439
           CX2          -0.0150488  -0.0000009  -0.0000002   0.0484402
           CY2          -0.0000009  -0.0884324  -0.0204911   0.0000000   0.0521947
           CZ2          -0.0000003  -0.0243910  -0.0209466   0.0000000   0.0014206
           HX3           0.0010187  -0.0013790   0.0006416  -0.0668041   0.0288029
           HY3           0.0266974  -0.0122442   0.0094575   0.0284511  -0.0321235
           HZ3           0.0085422  -0.0039992   0.0049528  -0.0178407   0.0095772
           HX4           0.0010181   0.0013786  -0.0006414  -0.0668053  -0.0288021
           HY4          -0.0266977  -0.0122437   0.0094575  -0.0284503  -0.0321222
           HZ4          -0.0085422  -0.0039990   0.0049528   0.0178410   0.0095768
           OX5           0.0004394   0.0000000  -0.0000001  -0.0046368   0.0000000
           OY5           0.0000000   0.0015232  -0.0098240  -0.0000000  -0.0069069
           OZ5           0.0000000  -0.0001390  -0.0061665  -0.0000000   0.0023609
           HX6           0.0004610  -0.0000000  -0.0000001  -0.0000189  -0.0000000
           HY6           0.0000000   0.0026088  -0.0004051  -0.0000000   0.0000892
           HZ6           0.0000000   0.0013821  -0.0082047  -0.0000000  -0.0129702
                             CZ2         HX3         HY3         HZ3         HX4     
           CZ2           0.0421319
           HX3          -0.0185950   0.2415973
           HY3           0.0104726  -0.1088699   0.1099681
           HZ3          -0.0216407   0.0753648  -0.0439205   0.0932609
           HX4           0.0185953  -0.0212821  -0.0140501   0.0074311   0.2416020
           HY4           0.0104722   0.0140508   0.0082901  -0.0045702   0.1088668
           HZ4          -0.0216407  -0.0074312  -0.0045700   0.0058730  -0.0753659
           OX5           0.0000000   0.0023182  -0.0001323  -0.0073988   0.0023182
           OY5          -0.0011172  -0.0008137   0.0010866   0.0043483   0.0008137
           OZ5          -0.0187024  -0.0008813   0.0008405  -0.0077855   0.0008813
           HX6          -0.0000000  -0.0000531  -0.0014245  -0.0003008  -0.0000531
           HY6           0.0029949   0.0000518   0.0005033   0.0021199  -0.0000518
           HZ6          -0.0066467  -0.0009000  -0.0004525   0.0016030   0.0009000
                             HY4         HZ4         OX5         OY5         OZ5     
           HY4           0.1099632
           HZ4          -0.0439189   0.0932611
           OX5           0.0001323   0.0073989   0.0029727
           OY5           0.0010866   0.0043481  -0.0000000   0.0361020
           OZ5           0.0008405  -0.0077855  -0.0000000   0.0086110   0.0272929
           HX6           0.0014246   0.0003009  -0.0009186   0.0000000   0.0000000
           HY6           0.0005033   0.0021199  -0.0000000  -0.1236869  -0.0439931
           HZ6          -0.0004525   0.0016029  -0.0000000  -0.0293219  -0.0224571
                             HX6         HY6         HZ6     
           HX6           0.0033700
           HY6           0.0000001   0.4888215
           HZ6           0.0000000   0.1610911   0.1173988


 Mass Weighted 2nd Derivative Matrix Eigenvalues
 1-10    0.000000    0.000000    0.000000    0.000000    0.000000    0.000000    0.004551    0.044867    0.046992    0.054197
 11-18    0.074543    0.087158    0.087208    0.089451    0.350879    0.365887    0.383579    0.582847

 Mass Weighted 2nd Derivative Matrix Eigenvectors
              1             2             3             4             5             6             7             8
    1   -0.00097417   -0.00157757    0.00732699    0.01589203   -0.01829381    0.59338165    0.28853474   -0.00000037
    2   -0.03479520   -0.05526692    0.11793292    0.26423024   -0.03129618   -0.00970698   -0.00000332    0.08610253
    3   -0.05576317    0.01126833   -0.00770813   -0.17708482    0.21402832    0.01137364    0.00000116   -0.47415895
    4    0.55998844    0.30229014   -0.04764947    0.20575981    0.27726739    0.39965376    0.00750983   -0.00000039
    5   -0.08465117   -0.16412039    0.45982184    0.65425719   -0.02138190   -0.02443469    0.00000087   -0.15165505
    6   -0.29018035   -0.03450309   -0.17254435    0.09965917    0.49947535    0.01429205    0.00000059   -0.44187088
    7    0.33478357    0.07746183   -0.04616464    0.09816339    0.16620171   -0.06588952   -0.10100010    0.02223148
    8    0.15823980   -0.00852546    0.08638239    0.31596949    0.07396536   -0.39495140   -0.21686163    0.15209560
    9   -0.24059898    0.06336161   -0.03687612    0.10415379    0.05294089   -0.08273538   -0.04886518    0.09230211
   10    0.33477932    0.07746067   -0.04616398    0.09816234    0.16619935   -0.06588070   -0.10099466   -0.02223065
   11   -0.22898820   -0.10287366    0.14776742    0.22085159   -0.13937476    0.37525891    0.21686356    0.15209786
   12    0.04446916   -0.10433287   -0.10484183    0.15672574    0.16823669    0.08388733    0.04886488    0.09229655
   13   -0.32087087    0.86354871    0.17039771    0.05512283   -0.08074812    0.06465348   -0.24386581   -0.00000020
   14    0.05816579   -0.07246888    0.76358760   -0.37790992    0.35650473    0.01158637   -0.00000035   -0.01425258
   15   -0.32667674   -0.03357365   -0.18675376    0.05442229    0.59704857    0.01862975   -0.00000073    0.55109551
   16    0.06460049    0.29459709    0.02384236    0.05261415    0.06717535   -0.40384341    0.85906081    0.00000169
   17    0.02342503   -0.01156749    0.20484565   -0.15900955    0.11106565    0.00516114   -0.00000024    0.18978863
   18   -0.10696844   -0.02716716   -0.08414825    0.19515573    0.08882014   -0.00169716    0.00000001   -0.38116636
              9            10            11            12            13            14            15            16
    1   -0.00000147   -0.24873316   -0.00000066    0.00041183    0.70821414   -0.00000825    0.00000356   -0.02378992
    2    0.09348787    0.00000142    0.00450982   -0.25360573    0.00013962   -0.06157144    0.29515254    0.00000240
    3   -0.27905909    0.00000735   -0.34488870    0.60965373   -0.00035544    0.16390906    0.09966257    0.00000078
    4    0.00000136    0.42283275   -0.00000095   -0.00011537   -0.19537826    0.00000039    0.00000166   -0.31114161
    5   -0.20909840    0.00000008   -0.37730103   -0.06290222    0.00003775   -0.12619041    0.08913450    0.00000326
    6    0.50929861   -0.00000243   -0.08807348   -0.33254277    0.00019641    0.16878369   -0.14604199   -0.00000034
    7    0.03433988   -0.16942870    0.10680186   -0.01870064    0.05833766    0.39701558    0.54730215    0.54394925
    8    0.14218655   -0.08392516    0.19278552    0.28782066    0.37291193    0.38712897   -0.29906268   -0.32271544
    9    0.31144316    0.56568422    0.12392223    0.37327803    0.29451193   -0.37845693    0.21866594    0.22646039
   10   -0.03434015   -0.16942559   -0.10679863    0.01877586    0.05829850   -0.39700842   -0.54731132    0.54395434
   11    0.14218910    0.08392311    0.19278935    0.28738328   -0.37324153    0.38714589   -0.29905178    0.32270199
   12    0.31143188   -0.56569257    0.12391638    0.37293325   -0.29495700   -0.37844971    0.21866748   -0.22646012
   13   -0.00000087   -0.21872338   -0.00000011   -0.00002070   -0.03517459   -0.00000006   -0.00000005    0.00189215
   14    0.05610228    0.00000019    0.27811334   -0.02803993    0.00001592   -0.07759833   -0.00014190   -0.00000009
   15   -0.42144715    0.00000191   -0.07359455   -0.03976017    0.00002386    0.03372178   -0.00712033    0.00000004
   16    0.00000052   -0.00009900    0.00000114   -0.00000651   -0.01054391   -0.00000001    0.00000008    0.00198212
   17    0.12015646   -0.00000040   -0.19610946    0.00715960   -0.00000371    0.03186946   -0.00404274    0.00000016
   18   -0.42225135    0.00000179    0.69414535   -0.04998699    0.00002773   -0.12375312   -0.00469346   -0.00000002
             17            18
    1    0.00001003    0.00000013
    2    0.85987722    0.01227341
    3    0.29879544    0.00182982
    4   -0.00000290    0.00000000
    5   -0.29731773   -0.00740839
    6   -0.04915642    0.00351291
    7   -0.17148163    0.00003527
    8    0.07865093   -0.00016177
    9   -0.06754490    0.00414726
   10    0.17148155   -0.00003545
   11    0.07864588   -0.00016195
   12   -0.06754433    0.00414725
   13    0.00000005   -0.00000002
   14    0.00550849   -0.22520537
   15    0.00088547   -0.08940176
   16   -0.00000013    0.00000011
   17   -0.01318611    0.91078873
   18    0.00238674    0.33391330

   Low Vibration      Wavenumber
        Nr             [1/cm] 
        1                0.00
        2                0.00
        3                0.00
        4                0.00
        5                0.00
        6                0.00

     Vibration        Wavenumber
        Nr             [1/cm] 
        1              346.80
        2             1088.85
        3             1114.34
        4             1196.72
        5             1403.49
        6             1517.60
        7             1518.04
        8             1537.43
        9             3044.97
       10             3109.41
       11             3183.70
       12             3924.47

 FREQUENCIES * CALCULATION OF NORMAL MODES FOR MP2


 Atomic Coordinates

  Nr  Atom  Charge       X              Y              Z

   1   H     1.00    0.000022558    1.913944760    2.072428526
   2   C     6.00   -0.000000049   -0.023125284    1.370601182
   3   H     1.00    1.684477382   -0.978279191    2.111751415
   4   H     1.00   -1.684498452   -0.978240968    2.111753118
   5   O     8.00   -0.000000031    0.120021446   -1.304754325
   6   H     1.00   -0.000000407   -1.586902758   -1.908054388

 Gradient norm at reference geometry: 0.23111D-06

 Normal Modes

                              1 A         2 A         3 A         4 A         5 A  
 Wavenumbers [cm-1]          346.80     1088.85     1114.34     1196.72     1403.49
 Intensities [km/mol]        120.85      108.33        2.94        1.08       23.14
 Intensities [relative]      100.00       89.64        2.44        0.89       19.14
           HX1              0.28741    -0.00000    -0.00000    -0.24777    -0.00000
           HY1             -0.00000     0.08577     0.09312     0.00000     0.00449
           HZ1              0.00000    -0.47231    -0.27797     0.00001    -0.34355
           CX2              0.00217    -0.00000     0.00000     0.12206    -0.00000
           CY2              0.00000    -0.04378    -0.06036     0.00000    -0.10892
           CZ2              0.00000    -0.12756     0.14702    -0.00000    -0.02542
           HX3             -0.10061     0.02215     0.03421    -0.16877     0.10639
           HY3             -0.21602     0.15150     0.14163    -0.08360     0.19204
           HZ3             -0.04868     0.09194     0.31023     0.56348     0.12344
           HX4             -0.10060    -0.02214    -0.03421    -0.16877    -0.10638
           HY4              0.21602     0.15151     0.14164     0.08360     0.19204
           HZ4              0.04867     0.09194     0.31022    -0.56349     0.12343
           OX5             -0.06098    -0.00000    -0.00000    -0.05469    -0.00000
           OY5             -0.00000    -0.00356     0.01403     0.00000     0.06954
           OZ5             -0.00000     0.13780    -0.10538     0.00000    -0.01840
           HX6              0.85572     0.00000     0.00000    -0.00010     0.00000
           HY6             -0.00000     0.18905     0.11969    -0.00000    -0.19535
           HZ6              0.00000    -0.37968    -0.42061     0.00000     0.69145

                              6 A         7 A         8 A         9 A        10 A  
 Wavenumbers [cm-1]         1517.60     1518.04     1537.43     3044.97     3109.41
 Intensities [km/mol]          7.09        2.01        3.74       55.32       68.44
 Intensities [relative]        5.87        1.66        3.09       45.78       56.63
           HX1              0.00041     0.70546    -0.00001     0.00000    -0.02370
           HY1             -0.25262     0.00014    -0.06133     0.29400     0.00000
           HZ1              0.60728    -0.00035     0.16327     0.09927     0.00000
           CX2             -0.00003    -0.05640     0.00000     0.00000    -0.08982
           CY2             -0.01816     0.00001    -0.03643     0.02573     0.00000
           CZ2             -0.09600     0.00006     0.04872    -0.04216    -0.00000
           HX3             -0.01863     0.05811     0.39547     0.54517     0.54183
           HY3              0.28670     0.37146     0.38562    -0.29790    -0.32146
           HZ3              0.37183     0.29337    -0.37698     0.21782     0.22558
           HX4              0.01870     0.05807    -0.39546    -0.54518     0.54184
           HY4              0.28627    -0.37179     0.38564    -0.29789     0.32145
           HZ4              0.37148    -0.29381    -0.37698     0.21782    -0.22558
           OX5             -0.00001    -0.00880    -0.00000    -0.00000     0.00047
           OY5             -0.00701     0.00000    -0.01940    -0.00004    -0.00000
           OZ5             -0.00994     0.00001     0.00843    -0.00178     0.00000
           HX6             -0.00001    -0.01050    -0.00000     0.00000     0.00197
           HY6              0.00713    -0.00000     0.03175    -0.00403     0.00000
           HZ6             -0.04979     0.00003    -0.12327    -0.00468    -0.00000

                             11 A        12 A  
 Wavenumbers [cm-1]         3183.70     3924.47
 Intensities [km/mol]         30.87       28.42
 Intensities [relative]       25.55       23.52
           HX1              0.00001     0.00000
           HY1              0.85653     0.01223
           HZ1              0.29763     0.00182
           CX2             -0.00000     0.00000
           CY2             -0.08583    -0.00214
           CZ2             -0.01419     0.00101
           HX3             -0.17081     0.00004
           HY3              0.07834    -0.00016
           HZ3             -0.06728     0.00413
           HX4              0.17081    -0.00004
           HY4              0.07834    -0.00016
           HZ4             -0.06728     0.00413
           OX5              0.00000    -0.00000
           OY5              0.00138    -0.05631
           OZ5              0.00022    -0.02235
           HX6             -0.00000     0.00000
           HY6             -0.01313     0.90725
           HZ6              0.00238     0.33261


 Normal Modes of low/zero frequencies

                                  1           2           3           4           5
 Wavenumbers [cm-1]            0.00        0.00        0.00        0.00        0.00
 Intensities [km/mol]          0.00        0.00        0.00        0.00        0.00
 Intensities [relative]        0.00        0.00        0.00        0.00        0.00
           HX1             -0.00097    -0.00157     0.00730     0.01583    -0.01822
           HY1             -0.03466    -0.05505     0.11747     0.26320    -0.03117
           HZ1             -0.05555     0.01122    -0.00768    -0.17640     0.21320
           CX2              0.16165     0.08726    -0.01376     0.05940     0.08004
           CY2             -0.02444    -0.04738     0.13274     0.18887    -0.00617
           CZ2             -0.08377    -0.00996    -0.04981     0.02877     0.14419
           HX3              0.33348     0.07716    -0.04599     0.09778     0.16556
           HY3              0.15762    -0.00849     0.08605     0.31474     0.07368
           HZ3             -0.23966     0.06312    -0.03673     0.10375     0.05273
           HX4              0.33348     0.07716    -0.04598     0.09778     0.16555
           HY4             -0.22810    -0.10247     0.14719     0.21999    -0.13883
           HZ4              0.04430    -0.10393    -0.10443     0.15612     0.16758
           OX5             -0.08023     0.21592     0.04261     0.01378    -0.02019
           OY5              0.01454    -0.01812     0.19093    -0.09449     0.08914
           OZ5             -0.08168    -0.00839    -0.04670     0.01361     0.14929
           HX6              0.06435     0.29345     0.02375     0.05241     0.06691
           HY6              0.02333    -0.01152     0.20405    -0.15839     0.11063
           HZ6             -0.10655    -0.02706    -0.08382     0.19440     0.08847

                                  6
 Wavenumbers [cm-1]            0.00
 Intensities [km/mol]          0.00
 Intensities [relative]        0.00
           HX1              0.59107
           HY1             -0.00967
           HZ1              0.01133
           CX2              0.11537
           CY2             -0.00705
           CZ2              0.00413
           HX3             -0.06563
           HY3             -0.39342
           HZ3             -0.08241
           HX4             -0.06562
           HY4              0.37380
           HZ4              0.08356
           OX5              0.01617
           OY5              0.00290
           OZ5              0.00466
           HX6             -0.40227
           HY6              0.00514
           HZ6             -0.00169


 Frequencies dumped to record   5400.2

 Zero point energy:  0.05236553 [H]    11492.91 [1/CM]      137.49 [KJ/MOL]
 Frequency information read from record  5400.2

 Recomputing wavefunction at initial geometry


 **********************************************************************************************************************************
 DATASETS  * FILE   NREC   LENGTH (MB)   RECORD NAMES
              1      20       30.63       500      610      700      900      950      970     1000      129      960     1100   
                                          VAR    BASINP    GEOM    SYMINP    ZMAT    AOBASIS   BASIS     P2S    ABASIS      S 
                                         1400     1410     1200     1210     1080     1600     1650     1700     1380     5200   
                                           T        V       H0       H01     AOSYM     SMH    MOLCAS    OPER     JKOP      MP2  

              2       9        0.61       700     1000      520     2100     4100     9001     5300     5450     5400   
                                         GEOM     BASIS   MCVARS     RHF     CPHF    DEN_MP2   HESS     NMOD     FREQ   

 PROGRAMS   *        TOTAL      FREQ      OPTG       MP2    HF-SCF       INT
 CPU TIMES  *       474.42    337.32    129.10      5.54      1.47      0.53
 REAL TIME  *       388.14 SEC
 DISK USED  *        63.48 MB (local),      295.99 MB (total)
 SF USED    *         4.85 MB
 GA USED    *         0.00 MB       (max)       0.00 MB       (current)
 **********************************************************************************************************************************

 Dump information in style MOLDEN to methanol_mp2.molden                                                             

 Molecular orbitals read from record     2100.2  Type=RHF/CANONICAL (state 1.1)
 Occupation numbers read from record     2100.2  Type=RHF/RHF (state 1.1)
 Orbital energies read from record       2100.2  Type=RHF/CANONICAL (state 1.1)
 Redundancy group numbers read from rec  2100.2  Type=RHF/RHF (state 1.1)

 DUMP ORBITAL  1.1 AS ORBITAL    1  occ=    2.0000  eig=  -20.5457  GROUP=   2
 DUMP ORBITAL  2.1 AS ORBITAL    2  occ=    2.0000  eig=  -11.2704  GROUP=   2
 DUMP ORBITAL  3.1 AS ORBITAL    3  occ=    2.0000  eig=   -1.3539  GROUP=   2
 DUMP ORBITAL  4.1 AS ORBITAL    4  occ=    2.0000  eig=   -0.9220  GROUP=   2
 DUMP ORBITAL  5.1 AS ORBITAL    5  occ=    2.0000  eig=   -0.6872  GROUP=   2
 DUMP ORBITAL  6.1 AS ORBITAL    6  occ=    2.0000  eig=   -0.6167  GROUP=   2
 DUMP ORBITAL  7.1 AS ORBITAL    7  occ=    2.0000  eig=   -0.5884  GROUP=   2
 DUMP ORBITAL  8.1 AS ORBITAL    8  occ=    2.0000  eig=   -0.5008  GROUP=   2
 DUMP ORBITAL  9.1 AS ORBITAL    9  occ=    2.0000  eig=   -0.4469  GROUP=   2

 Total charge:      18.000000
 Frequency information read from record  5400.2

 **********************************************************************************************************************************

 MP2/6-311G(D,P) energy=   -115.436402652729

       OPTG(MP2)             MP2          HF-SCF
   -115.43640265   -115.43558829   -115.07498331
 **********************************************************************************************************************************
 Molpro calculation terminated
