[Molden Format]
[Molpro variables]
_NUMVAR=  1031.000000000000    
_AVOGAD= 0.6022140760000000E+24
_BOLTZ= 0.1380649000000000E-22
_CLIGHTSI=  299792458.0000000    
_JOULE= 0.4359744722207100E-17
_JPCAL=  4.184000000000000    
_PLANCK= 0.6626070150000000E-33
_BOHR= 0.5291772109030000E-10
_ECHARG= 0.1602176634000000E-18
_ENULL= 0.8854187812800001E-11
_MU= 0.1660539066600000E-26
_EMASS= 0.9109383701500001E-30
_AMU2AU=  1822.888486217313    
_CLIGHT=  29979245800.00000    
_EV= 0.3674932217565494E-01
_KJOULE= 0.3808798847133432E-03
_KJOULE/MOL= 0.3808798847133432E-03
_CM= 0.4556335252912009E-05
_CM-1= 0.4556335252912009E-05
_DEB2SI= 0.3335640951981520E-29
_KCAL= 0.1593601437640628E-02
_KCAL/MOL= 0.1593601437640628E-02
_KELVIN= 0.3166811563455608E-05
_HERTZ= 0.1519829846057038E-15
_HZ= 0.1519829846057038E-15
_TOA= 0.5291772109030000    
_TOANG= 0.5291772109030000    
_TORAD= 0.1745329251994330E-01
_TOCM=  219474.6313631965    
_TODEBYE=  2.541746473194078    
_TOE= 0.4803204712570263E-09
_TOEV=  27.21138624598803    
_TOHERTZ=  6579683920501656.    
_TOHZ=  6579683920501656.    
_TOK=  315775.0248040668    
_TOKCAL=  627.5094740630558    
_TOKELVIN=  315775.0248040668    
_TOKJ=  2625.499639479825    
_TOKJOULE=  2625.499639479825    
_TOKG= 0.1660539066600000E-26
_ANG=  1.889726124625770    
_ANGSTROM=  1.889726124625770    
_RPAREF=  0.000000000000000    
_RPADISS=  0.000000000000000    
_IGNORE_UNDEF=  2.000000000000000    
_STRICTCHECK=  0.000000000000000    
!SEWARD=  0.000000000000000    
!MULTI=  0.000000000000000    
!DFMULTI=  0.000000000000000    
_SEW_ONEEL=  0.000000000000000    
_CPPDONE=FALSE
_DKROLL_DONE=  0.000000000000000    
_FNUC_DONE=  0.000000000000000    
_FOCKDONE=TRUE
_GRADONE=FALSE
_HESSDONE=TRUE
_INTDONE=TRUE
_SCFDONE=TRUE
_MODUL_BLOCK=FALSE
_MODUL_CUDA=FALSE
_MODUL_SLATER=FALSE
_MODUL_MRCC=FALSE
_MODUL_NBO6=FALSE
_MODUL_NECI=FALSE
_MODUL_AIMS=TRUE
_MODUL_GECCO=FALSE
_ISWINDOWS=FALSE
_MRCC_EXEC=
_FITC_AO_SAVED=FALSE
_FITC_MO_SAVED=FALSE
_SHARED_FS=TRUE
_LSTYP=SEWARD
_INTYP=INTS
_GEOMTYP=ZMAT
_GRADTYP=ALASKA
_DIRECT=FALSE
_DKHO= -1.000000000000000    
_FNUC=  0.000000000000000    
_SYNCM=  0.000000000000000    
_BASIS=6-311G(D,P)
_ZCENTRE=MASS
_ZORIENT=  1.000000000000000    
_NELEC=  10.00000000000000    
!SPIN=  0.000000000000000    
_OPTCONV= 0.3144144569394574E-03
_QSDSTEP=  0.000000000000000    
_QSDIRC=  0.000000000000000    
_PROGRAM=FREQ
_CPUSTEP=  0.000000000000000    
_SYSSTEP=  0.000000000000000    
_WALLSTEP=  0.000000000000000    
!DFMP2=  0.000000000000000    
!DFSCF=  0.000000000000000    
!SCSGRD=  0.000000000000000    
_CPUTOT=  22.39000000000000    
_CPUCCSD=  0.000000000000000    
_SYSCCSD=  0.000000000000000    
_WALLCCSD=  0.000000000000000    
_CPUF12=  0.000000000000000    
_SYSF12=  0.000000000000000    
_WALLF12=  0.000000000000000    
_CPUF12B=  0.000000000000000    
_SYSF12B=  0.000000000000000    
_WALLF12B=  0.000000000000000    
_CPUTRANS=  0.000000000000000    
_SYSTRANS=  0.000000000000000    
_WALLTRANS=  0.000000000000000    
_DFTEXFAC=  1.000000000000000    
_DMX=  0.000000000000000    
_DMY=  0.000000000000000    
_DMZ= 0.8185845741576329    
_DMX_SCF=  0.000000000000000    
_DMY_SCF=  0.000000000000000    
_DMZ_SCF= 0.8624091557504858    
_FREQUENCIES= 0.6767299673688489E-04
_HOMO=  1.200000000000000    
_EHOMO=-0.5004305918127036    
_LUMO=  4.100000000000000    
_ELUMO= 0.1498405062338353    
_ENERGC= -76.27144140358688    
_ENERGR= -76.04632559474592    
_ENERGY= -76.27144140358688    
_ENERGY_METHOD=CCSD
_ENERGY_BASIS=6-311G(D,P)
_GEOMETRY_METHOD=
_GEOMETRY_BASIS=
_ENUC=  9.198733704823505    
_FREQSTEP=  10.00000000000000    
_GRADENERG= -76.27142228220542    
_GRADEXFAC=  9999.000000000000    
_GRADMETHOD=  12.00000000000000    
_NMRMETHOD=  0.000000000000000    
_NMRMAGNET=  0.000000000000000    
_GRADRECORD=TRUE
_VIRIAL=-0.8330899479062102E-02
!GRID_FREEZE= -1.000000000000000    
!NEESE_INDEX=  0.000000000000000    
_ITERATIONS=  9.000000000000000    
_LASTNELEC=  10.00000000000000    
_LASTSPIN=  0.000000000000000    
_LASTSYM=  1.000000000000000    
_MPP_PROG=  1.000000000000000    
_MSNSTATES=  0.000000000000000    
_RS2PHASE=  0.000000000000000    
_IPROC_MPP=  0.000000000000000    
_IPROC_MPPX=  0.000000000000000    
_NPROC_MPP=  6.000000000000000    
_NPROC_MPPX=  6.000000000000000    
_NPROC_SMP=  8.000000000000000    
_NUMSTEP=  0.000000000000000    
_OPTCONVMX= 0.2596276351269911E-03
_OPTCONVRMS= 0.1815272713511459E-03
_OPTGRAD= 0.2692327464482538E-03
_OPTGRADMX= 0.2647900621279978E-03
_OPTGRADRMS= 0.8974424881608461E-04
_OPTSTEP=  4.000000000000000    
_ORBITAL=  2100.200000000000    
_PI=  3.141592653589793    
_SEIG_MIN= 0.1773926318164651E-01
_SEWPROP=TRUE
_STATUS= -1.000000000000000    
_SYSTOT=  1.070000000000000    
_VERSION=  2022002.000000000    
_WALLTOT=  11.65000000000000    
_ZPE= 0.2185001381262327E-01
_DATE=21-Aug-25
_LASTORB=0
_METHODC=CCSD
_OUTPUT=/home/zwa/Overlap_Integral_Project/overlap_integral_gaussian/h20cal/ccsd/h2o.out
_PGROUP=C2v
_TIME=14:11:30
_LIBMOL=/usr/local/molpro/molpro_2022.2.3_sockets/lib/
_VIGRDC=  0.000000000000000    
!VIBCNT=  0.000000000000000    
!RGHFCNT=  0.000000000000000    
!SURFREC=  0.000000000000000    
!XSURFREC=  0.000000000000000    
!XPOLYREC=  0.000000000000000    
!ROTREC=  0.000000000000000    
!POLYREC=  0.000000000000000    
!DIPREC=  0.000000000000000    
!DIP4DREC=  0.000000000000000    
!DIPROT=  0.000000000000000    
!DIP4DROT=  0.000000000000000    
!PTREC=  0.000000000000000    
!PT4DREC=  0.000000000000000    
!VSCFREC=  0.000000000000000    
!VCIREC=  0.000000000000000    
!PVCIREC=  0.000000000000000    
!VMP2REC=  0.000000000000000    
!VMCSCFREC=  0.000000000000000    
!VMRCIREC=  0.000000000000000    
!VIBSTATEREC=  0.000000000000000    
!VIBSTATECNT=  0.000000000000000    
!VIBINFO=  0.000000000000000    
!GAREC=  0.000000000000000    
!SCFORB=  21002.00000000000    
!CIOCC=  3.000000000000000    
!CICORE=  1.000000000000000    
!DEFCORE=  1.000000000000000    
!SCORE=  0.000000000000000    
!CICLOS=  3.000000000000000    
!CIISTSYM=  1.000000000000000    
!CIISTMS2=  0.000000000000000    
!CIISTNEL=  8.000000000000000    
!NEWMOL= -1.000000000000000    
!NEWSYM= -1.000000000000000    
_SLFILES=slscratch
_NGSSTO=  9.000000000000000    
_SIN=SIN
_COS=COS
_TAN=TAN
_ACOS=ACOS
_ASIN=ASIN
_ATAN=ATAN
_COSH=COSH
_SINH=SINH
_TANH=TANH
_ABS=ABS
_MOD=MOD
_ERF=ERF
_REFC=REFC
_ERFC=ERFC
_HYPOT=HYPOT
_J0=J0
_J1=J1
_JN=JN
_GAMMA=GAMMA
_LGAMMA=LGAMMA
_Y0=Y0
_Y1=Y1
_YN=YN
_EXP=EXP
_LOG=LOG
_LOG10=LOG10
_SQRT=SQRT
_INT=INT
_NINT=NINT
_MAX=MAX
_MIN=MIN
_COSMO=  0.000000000000000    
_COSMOIT=  0.000000000000000    
_COSMOES=  0.000000000000000    
_COSMOEDS=  0.000000000000000    
_COSMOEC=  0.000000000000000    
_COSMOEDCORR=  0.000000000000000    
_FEPSI=  1.000000000000000    
_SL_IsMM=  0.000000000000000    
_SL_NSYM=  4.000000000000000    
_SL_System_BitSw=  0.000000000000000    
_SL_Unique_atoms=  0.000000000000000    
_SL_GRAD=  0.000000000000000    
_SL_MAXUPD_Hess=  5.000000000000000    
_SL_N_PRINT_COD=  5.000000000000000    
_SL_PRINT_CODES=  0.000000000000000    
_SL_BasType=  0.000000000000000    
_SL_Energy_Pred=  0.000000000000000    
_SL_New_Coords=  0.000000000000000    
_SL_Total_Nuclea=  0.000000000000000    
_SL_Highest_Mltp=  0.000000000000000    
_SL_Ref_Geom=  0.000000000000000    
_SL_Symmetry_ope=  3.000000000000000    
_SL_agrad=  0.000000000000000    
_SL_GrdMax=  0.000000000000000    
_SL_GrdNorm=  0.000000000000000    
_SL_GrdRMS=  0.000000000000000    
_SL_Hss_Q=  0.000000000000000    
_SL_Hss_X=  0.000000000000000    
_SL_BMxOld=  0.000000000000000    
_SL_KtB=  0.000000000000000    
_SL_TROld=  0.000000000000000    
_SL_No_of_Intern=  0.000000000000000    
_SL_Hess=  0.000000000000000    
_SL_K=  0.000000000000000    
!LATTICE= -1.000000000000000    
!NEWLATTICE=  0.000000000000000    
!LATGRAD_VAR=FALSE
!SEW_LATTICE=  1.000000000000000    
!AIC_ONEEL=  0.000000000000000    
!LOCAL=  0.000000000000000    
!SAVEDOM= -1.000000000000000    
!RESTDOM= -1.000000000000000    
!SAVEDOM_HF= -1.000000000000000    
!RESTDOM_HF= -1.000000000000000    
!HESSREC=  5300.200000000000    
!FREQREC=  5400.200000000000    
!NMODREC=  5450.200000000000    
!GTASKS=  0.000000000000000    
!HTASKS=  0.000000000000000    
!SAVEDOM_EOM= -1.000000000000000    
!RESTDOM_EOM= -1.000000000000000    
!GRADSTATE= -1.000000000000000    
!DEBUG=  0.000000000000000    
!CFIT_CPHF=  0.000000000000000    
!RDOMAUX_CPHF=  0.000000000000000    
!THRAO_CPHF= 0.1000000000000000E-11
!THRMO_CPHF= 0.1000000000000000E-11
!THROV_CPHF= 0.1000000000000000E-11
!THRSW_CPHF= 0.1000000000000000E-11
!THRPROD_CPHF= 0.1000000000000000E-11
!THRAOPR_CPHF= 0.1000000000000000E-11
!CFIT_SCFGRD=  0.000000000000000    
!RDOMAUX_SCFGRD=  0.000000000000000    
!THRAO_SCFGRD= 0.1000000000000000E-11
!THRMO_SCFGRD= 0.1000000000000000E-11
!THROV_SCFGRD= 0.1000000000000000E-11
!THRSW_SCFGRD= 0.1000000000000000E-11
!THRPROD_SCFGRD= 0.1000000000000000E-11
!THRAOPR_SCFGRD= 0.1000000000000000E-11
!LOCFIT_SCF=  0.000000000000000    
!LOCFIT_MP2=  0.000000000000000    
_RIDOM=  0.000000000000000    
!CC2_METHOD=  0.000000000000000    
_BASIS2006=FALSE
_SVDDEL= -1.000000000000000    
_SVDDELA= -1.000000000000000    
_SVDDELP= -1.000000000000000    
_SVDDELF= -1.000000000000000    
_SVDDELS= -1.000000000000000    
_SVDDEL_ABS= -1.000000000000000    
_SVDDELA_ABS= -1.000000000000000    
_SVDDELP_ABS= -1.000000000000000    
_SVDDELF_ABS= -1.000000000000000    
_SVDDELS_ABS= -1.000000000000000    
_MAXBASIS=  0.000000000000000    
!OPT_CONICAL=  0.000000000000000    
!CLEARSP_JGRID=  0.000000000000000    
_GRDHYBR=  0.000000000000000    
_STATEGRAD=  1.000000000000000    
_4EXT_NDISKS=  1.000000000000000    
!EMBEDFLAG=  1.000000000000000    
!EMBED=FALSE
!EMBED_F12=FALSE
!EMBEDNUC=  0.000000000000000    
_EMBEDENERGY=  0.000000000000000    
!EMBED_DFC=FALSE
!NUM_VOIDS=  0.000000000000000    
_IBODY=  0.000000000000000    
_EMBE_CORR=  0.000000000000000    
!EMBED_PROJ=FALSE
!EMB_PROJ_ZMU=  1000000.000000000    
!CORRECTION_HF=  0.000000000000000    
!EMBED_AORB=  0.000000000000000    
!EMBED_NACORR=  0.000000000000000    
!EMBED_MP2=FALSE
!EMBED_TRUNC_PERTURBATION=FALSE
!EMBED_FROZEN=  0.000000000000000    
!EMBED_ACTIVE=  0.000000000000000    
_CHANGE_BASIS=FALSE
_RESTORE_BASIS=FALSE
_FIX_EMBED_GUESS=FALSE
_EMBED_SCF=FALSE
_HUZINAGA_T=FALSE
_HUZINAGA_F=FALSE
_HUZINAGA=FALSE
_HUZINAGA_CORRECT=FALSE
!FASTLATGRAD=  1.000000000000000    
!FASTVLAMBDA= -1.000000000000000    
!IFORCE= -1.000000000000000    
!USESYM= -1.000000000000000    
_SINDEX=  0.000000000000000    
_AVDOM_OSV=  0.000000000000000    
_AVDOM_PNO=  0.000000000000000    
_AVDOM_PAO=  0.000000000000000    
_AVDOM_LMO=  0.000000000000000    
!CPP_PROG=CCSD-GRAD
_CC2OSV_FLAG=  0.000000000000000    
_EOMCCSD_CONV=FALSE
_TMADC2_FLAG=FALSE
_PROPADC2_FLAG=FALSE
_LEN_VirQ=  0.000000000000000    
_GRDCC2LR_FLAG=FALSE
_GRDADC2_FLAG=FALSE
_RO_VGLOBAL=  0.000000000000000    
_OPT=FALSE
_FREQ=FALSE
_HESS=FALSE
_CMRCC_callName=EMPTY
_CMRCC_callCount=  0.000000000000000    
_GECCO_CIROOT=  1.000000000000000    
_SYM_CATION=  2.000000000000000    
_MON_A=FALSE
_MON_B=FALSE
GX1=  0.000000000000000    
GY1=  0.000000000000000    
GZ1=-0.6688316404487048E-01
GX2=  0.000000000000000    
GY2= 0.7477852095233560    
GZ2= 0.5307420382571079    
GX3=  0.000000000000000    
GY3=-0.7477852095233560    
GZ3= 0.5307420382571079    
OX1=  0.000000000000000    
OY1=  0.000000000000000    
OZ1=-0.1263908623932228    
HX2=  0.000000000000000    
HY2=  1.413109246045041    
HZ2=  1.002957095131587    
HX3=  0.000000000000000    
HY3= -1.413109246045041    
HZ3=  1.002957095131587    
[Atoms] Angs
O     1    8         0.0000000000        0.0000000000       -0.0668831640
H     2    1         0.0000000000        0.7477852095        0.5307420383
H     3    1         0.0000000000       -0.7477852095        0.5307420383
[GTO]
   1 0
 s    6  1.00
  0.8588500000D+04  0.1895150083D-02
  0.1297230000D+04  0.1438590063D-01
  0.2992960000D+03  0.7073200310D-01
  0.8737710000D+02  0.2400010105D+00
  0.2567890000D+02  0.5947970261D+00
  0.3740040000D+01  0.2808020123D+00
 s    3  1.00
  0.4211750000D+02  0.1138890124D+00
  0.9628370000D+01  0.9208111006D+00
  0.2853320000D+01 -0.3274470358D-02
 s    1  1.00
  0.9056610000D+00  0.1000000000D+01
 s    1  1.00
  0.2556110000D+00  0.1000000000D+01
 p    3  1.00
  0.4211750000D+02  0.3651139738D-01
  0.9628370000D+01  0.2371529830D+00
  0.2853320000D+01  0.8197019412D+00
 p    1  1.00
  0.9056610000D+00  0.1000000000D+01
 p    1  1.00
  0.2556110000D+00  0.1000000000D+01
 d    1  1.00
  0.1292000000D+01  0.1000000000D+01
  
   2 0
 s    3  1.00
  0.3386500000D+02  0.2549381454D-01
  0.5094790000D+01  0.1903731086D+00
  0.1158790000D+01  0.8521614860D+00
 s    1  1.00
  0.3258400000D+00  0.1000000000D+01
 s    1  1.00
  0.1027410000D+00  0.1000000000D+01
 p    1  1.00
  0.7500000000D+00  0.1000000000D+01
  
   3 0
 s    3  1.00
  0.3386500000D+02  0.2549381454D-01
  0.5094790000D+01  0.1903731086D+00
  0.1158790000D+01  0.8521614860D+00
 s    1  1.00
  0.3258400000D+00  0.1000000000D+01
 s    1  1.00
  0.1027410000D+00  0.1000000000D+01
 p    1  1.00
  0.7500000000D+00  0.1000000000D+01


[MO]
 Sym=      1.1
 Ene=     -20.5459
 Spin= Alpha
 Occup=    2.000000
1 0.55144990677266
2 0.47168759754371
3 0.005482076801824
4 -0.000471732102625
5 0.0
6 0.0
7 0.001801399946094
8 0.0
9 0.0
10 -0.000645752547060
11 0.0
12 0.0
13 0.000087992828285
14 0.000134388806535
15 -0.000112453307792
16 -0.000021935498744
17 0.0
18 0.0
19 0.0
20 0.000204496235104
21 0.000111385126767
22 0.000090395110339
23 0.0
24 -0.000084126567419
25 -0.000030349317569
26 0.000204496235104
27 0.000111385126767
28 0.000090395110339
29 0.0
30 0.000084126567419
31 -0.000030349317569
 Sym=      2.1
 Ene=      -1.3428
 Spin= Alpha
 Occup=    2.000000
1 -0.11341341804773
2 -0.18949979087206
3 0.53970497966056
4 0.37586806086687
5 0.0
6 0.0
7 0.037299406305023
8 0.0
9 0.0
10 0.062547435988176
11 0.0
12 0.0
13 0.020861306963878
14 -0.008028845639777
15 0.004808947626542
16 0.003219898013236
17 0.0
18 0.0
19 0.0
20 0.093957591837759
21 0.081199394527568
22 -0.002438609965361
23 0.0
24 -0.023479927278295
25 -0.015037484863572
26 0.093957591837759
27 0.081199394527568
28 -0.002438609965361
29 0.0
30 0.023479927278295
31 -0.015037484863572
 Sym=      1.3
 Ene=      -0.7030
 Spin= Alpha
 Occup=    2.000000
1 0.0
2 0.0
3 0.0
4 0.0
5 0.0
6 0.22677575808849
7 0.0
8 0.0
9 0.34847577494012
10 0.0
11 0.0
12 0.21790838563350
13 0.0
14 0.0
15 0.0
16 0.0
17 0.0
18 0.0
19 0.029041285454204
20 0.14844989392644
21 0.21337750123424
22 0.058996833420268
23 0.0
24 -0.018267516285074
25 -0.026657188071321
26 -0.14844989392644
27 -0.21337750123424
28 -0.058996833420268
29 0.0
30 -0.018267516285074
31 0.026657188071321
 Sym=      3.1
 Ene=      -0.5755
 Spin= Alpha
 Occup=    2.000000
1 0.038736482363735
2 0.065833993191787
3 -0.19904234426242
4 -0.33936287962069
5 0.0
6 0.0
7 0.25333187625343
8 0.0
9 0.0
10 0.37473734966595
11 0.0
12 0.0
13 0.33251288870434
14 -0.012750797563452
15 -0.004345216216546
16 0.017096013779998
17 0.0
18 0.0
19 0.0
20 0.089078463455618
21 0.15289776099512
22 0.028931154484206
23 0.0
24 -0.030726605820378
25 0.007802201582758
26 0.089078463455618
27 0.15289776099512
28 0.028931154484206
29 0.0
30 0.030726605820378
31 0.007802201582758
 Sym=      1.2
 Ene=      -0.5004
 Spin= Alpha
 Occup=    2.000000
1 0.0
2 0.0
3 0.0
4 0.0
5 0.29219849505081
6 0.0
7 0.0
8 0.43722193806034
9 0.0
10 0.0
11 0.46610495430950
12 0.0
13 0.0
14 0.0
15 0.0
16 0.0
17 0.0
18 0.017166490129267
19 0.0
20 0.0
21 0.0
22 0.0
23 0.031022623862616
24 0.0
25 0.0
26 0.0
27 0.0
28 0.0
29 0.031022623862616
30 0.0
31 0.0
 Sym=      4.1
 Ene=       0.1498
 Spin= Alpha
 Occup=    0.000000
1 0.033243711686032
2 0.054187721413979
3 -0.10262843545652
4 -0.83561907637851
5 0.0
6 0.0
7 -0.075821319425782
8 0.0
9 0.0
10 -0.11883883606010
11 0.0
12 0.0
13 -0.21005286822853
14 0.004934281000040
15 0.000024426599518
16 -0.004958707599558
17 0.0
18 0.0
19 0.0
20 0.035257512609082
21 -0.070096626687930
22 0.83800142997030
23 0.0
24 0.006160663900288
25 -0.002965909913387
26 0.035257512609082
27 -0.070096626687930
28 0.83800142997030
29 0.0
30 -0.006160663900288
31 -0.002965909913387
 Sym=      2.3
 Ene=       0.2173
 Spin= Alpha
 Occup=    0.000000
1 0.0
2 0.0
3 0.0
4 0.0
5 0.0
6 -0.12337347145854
7 0.0
8 0.0
9 -0.13233280976053
10 0.0
11 0.0
12 -0.50236930748319
13 0.0
14 0.0
15 0.0
16 0.0
17 0.0
18 0.0
19 -0.004809593532924
20 0.026697414587880
21 -0.12344072047705
22 1.57124703383545
23 0.0
24 0.008339878782661
25 0.008491105916830
26 -0.026697414587880
27 0.12344072047705
28 -1.57124703383545
29 0.0
30 0.008339878782661
31 -0.008491105916830
 Sym=      3.3
 Ene=       0.5636
 Spin= Alpha
 Occup=    0.000000
1 0.0
2 0.0
3 0.0
4 0.0
5 0.0
6 -0.12116623715332
7 0.0
8 0.0
9 -0.18270356178801
10 0.0
11 0.0
12 -1.08389928651253
13 0.0
14 0.0
15 0.0
16 0.0
17 0.0
18 0.0
19 0.014673929882690
20 0.084007227789953
21 1.43205809552401
22 -0.75889495285442
23 0.0
24 -0.021122976200879
25 0.003765068656329
26 -0.084007227789953
27 -1.43205809552401
28 0.75889495285442
29 0.0
30 -0.021122976200879
31 -0.003765068656329
 Sym=      5.1
 Ene=       0.6187
 Spin= Alpha
 Occup=    0.000000
1 0.033732534782735
2 0.059127052287074
3 -0.13682237472401
4 -1.37561377845993
5 0.0
6 0.0
7 -0.10359706873222
8 0.0
9 0.0
10 -0.19460783324107
11 0.0
12 0.0
13 -1.07747959698839
14 -0.002823416006608
15 0.013557855823182
16 -0.010734439816574
17 0.0
18 0.0
19 0.0
20 0.062161375260274
21 1.81721730256614
22 -0.62205381557431
23 0.0
24 -0.031542473869412
25 -0.038207464169284
26 0.062161375260274
27 1.81721730256614
28 -0.62205381557431
29 0.0
30 0.031542473869412
31 -0.038207464169284
 Sym=      6.1
 Ene=       0.9991
 Spin= Alpha
 Occup=    0.000000
1 -0.015028463865443
2 -0.027994208288636
3 0.060216451333395
4 0.94335103513216
5 0.0
6 0.0
7 -0.23302625296154
8 0.0
9 0.0
10 -0.73363875052144
11 0.0
12 0.0
13 1.59871317466445
14 -0.012035857086348
15 0.015225906166406
16 -0.003190049080057
17 0.0
18 0.0
19 0.0
20 -0.032881273104202
21 -0.60909958150377
22 -0.099046264633434
23 0.0
24 0.14870030592920
25 0.11017979398705
26 -0.032881273104202
27 -0.60909958150377
28 -0.099046264633434
29 0.0
30 -0.14870030592920
31 0.11017979398705
 Sym=      2.2
 Ene=       1.0033
 Spin= Alpha
 Occup=    0.000000
1 0.0
2 0.0
3 0.0
4 0.0
5 -0.23996030362738
6 0.0
7 0.0
8 -0.83673467242937
9 0.0
10 0.0
11 1.15095429640224
12 0.0
13 0.0
14 0.0
15 0.0
16 0.0
17 0.0
18 -0.008231918505773
19 0.0
20 0.0
21 0.0
22 0.0
23 -0.020205457678433
24 0.0
25 0.0
26 0.0
27 0.0
28 0.0
29 -0.020205457678433
30 0.0
31 0.0
 Sym=      4.3
 Ene=       1.1104
 Spin= Alpha
 Occup=    0.000000
1 0.0
2 0.0
3 0.0
4 0.0
5 0.0
6 -0.24016574759532
7 0.0
8 0.0
9 -0.71666071082944
10 0.0
11 0.0
12 1.78165652191760
13 0.0
14 0.0
15 0.0
16 0.0
17 0.0
18 0.0
19 0.030125517524045
20 -0.014307496266244
21 -0.33858724428523
22 -0.78346836346777
23 0.0
24 0.16699492590877
25 0.14769517825820
26 0.014307496266244
27 0.33858724428523
28 0.78346836346777
29 0.0
30 0.16699492590877
31 -0.14769517825820
 Sym=      7.1
 Ene=       1.3154
 Spin= Alpha
 Occup=    0.000000
1 0.099321716609894
2 0.20434489083427
3 -1.50207379356860
4 3.12970444031040
5 0.0
6 0.0
7 -0.029117283893393
8 0.0
9 0.0
10 0.15858980162540
11 0.0
12 0.0
13 0.61537160550049
14 -0.029745026610089
15 -0.003659189056537
16 0.033404215666626
17 0.0
18 0.0
19 0.0
20 0.012944368783816
21 -0.88204228999108
22 -0.33679179465708
23 0.0
24 0.15043994657610
25 0.37645410057188
26 0.012944368783816
27 -0.88204228999108
28 -0.33679179465708
29 0.0
30 -0.15043994657610
31 0.37645410057188
 Sym=      8.1
 Ene=       1.4614
 Spin= Alpha
 Occup=    0.000000
1 -0.035073497126438
2 -0.072956545315748
3 0.61761724351603
4 -2.04679486533326
5 0.0
6 0.0
7 -0.011678203369682
8 0.0
9 0.0
10 -0.10818090439233
11 0.0
12 0.0
13 -1.24086806462371
14 -0.004002735148395
15 -0.10656488317241
16 0.11056761832081
17 0.0
18 0.0
19 0.0
20 -0.081633949613903
21 1.16926894094607
22 -0.018914814749723
23 0.0
24 -0.60773148135088
25 0.39223203951018
26 -0.081633949613903
27 1.16926894094607
28 -0.018914814749723
29 0.0
30 0.60773148135088
31 0.39223203951018
 Sym=      1.4
 Ene=       1.5210
 Spin= Alpha
 Occup=    0.000000
1 0.0
2 0.0
3 0.0
4 0.0
5 0.0
6 0.0
7 0.0
8 0.0
9 0.0
10 0.0
11 0.0
12 0.0
13 0.0
14 0.0
15 0.0
16 0.0
17 0.12473723771680
18 0.0
19 0.0
20 0.0
21 0.0
22 0.0
23 0.69051157724455
24 0.0
25 0.0
26 0.0
27 0.0
28 0.0
29 -0.69051157724455
30 0.0
31 0.0
 Sym=      3.2
 Ene=       1.7070
 Spin= Alpha
 Occup=    0.000000
1 0.0
2 0.0
3 0.0
4 0.0
5 -0.049182654830329
6 0.0
7 0.0
8 -0.052700868423614
9 0.0
10 0.0
11 -0.55418309278250
12 0.0
13 0.0
14 0.0
15 0.0
16 0.0
17 0.0
18 0.14641475706823
19 0.0
20 0.0
21 0.0
22 0.0
23 0.76547296514753
24 0.0
25 0.0
26 0.0
27 0.0
28 0.0
29 0.76547296514753
30 0.0
31 0.0
 Sym=      5.3
 Ene=       1.9351
 Spin= Alpha
 Occup=    0.000000
1 0.0
2 0.0
3 0.0
4 0.0
5 0.0
6 0.010907043068481
7 0.0
8 0.0
9 0.011918811975368
10 0.0
11 0.0
12 -0.88566929654943
13 0.0
14 0.0
15 0.0
16 0.0
17 0.0
18 0.0
19 -0.074707906962978
20 -0.19167787425494
21 0.74032454199932
22 -0.16403557038741
23 0.0
24 0.48511352532165
25 -0.65086916010181
26 0.19167787425494
27 -0.74032454199932
28 0.16403557038741
29 0.0
30 0.48511352532165
31 0.65086916010181
 Sym=      6.3
 Ene=       2.2402
 Spin= Alpha
 Occup=    0.000000
1 0.0
2 0.0
3 0.0
4 0.0
5 0.0
6 0.17034434519566
7 0.0
8 0.0
9 0.48139119433969
10 0.0
11 0.0
12 -0.002251208120266
13 0.0
14 0.0
15 0.0
16 0.0
17 0.0
18 0.0
19 -0.23418092422930
20 -0.67539683685616
21 0.67418658662697
22 -0.53488124156465
23 0.0
24 0.29293315214383
25 0.48655548732066
26 0.67539683685616
27 -0.67418658662697
28 0.53488124156465
29 0.0
30 0.29293315214383
31 -0.48655548732066
 Sym=      9.1
 Ene=       2.3924
 Spin= Alpha
 Occup=    0.000000
1 0.029966273073136
2 0.055988763917147
3 -0.23955811252807
4 0.13913150386716
5 0.0
6 0.0
7 -0.16693203597063
8 0.0
9 0.0
10 -0.24287497415114
11 0.0
12 0.0
13 0.23513940866226
14 -0.28432762479325
15 0.19505268762255
16 0.089274937170698
17 0.0
18 0.0
19 0.0
20 0.88757662412019
21 -1.09468505998564
22 0.41188483958723
23 0.0
24 -0.28840897765733
25 -0.13925549263992
26 0.88757662412019
27 -1.09468505998564
28 0.41188483958723
29 0.0
30 0.28840897765733
31 -0.13925549263992
 Sym=     10.1
 Ene=       2.5952
 Spin= Alpha
 Occup=    0.000000
1 -0.055541753919329
2 -0.12970749697168
3 0.90474376910208
4 1.78637878508829
5 0.0
6 0.0
7 0.023018563996465
8 0.0
9 0.0
10 0.68787361953705
11 0.0
12 0.0
13 0.75508758204762
14 0.014985352778348
15 -0.000153013893598
16 -0.014832338884750
17 0.0
18 0.0
19 0.0
20 0.55669868076717
21 -1.98177966841589
22 0.26504195259500
23 0.0
24 0.88347956563098
25 0.68229264490557
26 0.55669868076717
27 -1.98177966841589
28 0.26504195259500
29 0.0
30 -0.88347956563098
31 0.68229264490557
 Sym=      7.3
 Ene=       2.7855
 Spin= Alpha
 Occup=    0.000000
1 0.0
2 0.0
3 0.0
4 0.0
5 0.0
6 -0.011854934601188
7 0.0
8 0.0
9 -0.88205582807899
10 0.0
11 0.0
12 -0.65505453096804
13 0.0
14 0.0
15 0.0
16 0.0
17 0.0
18 0.0
19 -0.23180370421921
20 -0.78982643622288
21 2.08291409098059
22 -0.52802655630312
23 0.0
24 -0.89941937087755
25 -0.63558022215703
26 0.78982643622288
27 -2.08291409098059
28 0.52802655630312
29 0.0
30 -0.89941937087755
31 0.63558022215703
 Sym=      4.2
 Ene=       3.5044
 Spin= Alpha
 Occup=    0.000000
1 0.0
2 0.0
3 0.0
4 0.0
5 0.019775749673958
6 0.0
7 0.0
8 -0.014203072373861
9 0.0
10 0.0
11 0.26954314380969
12 0.0
13 0.0
14 0.0
15 0.0
16 0.0
17 0.0
18 1.03589493083545
19 0.0
20 0.0
21 0.0
22 0.0
23 -0.36080603433299
24 0.0
25 0.0
26 0.0
27 0.0
28 0.0
29 -0.36080603433299
30 0.0
31 0.0
 Sym=      2.4
 Ene=       3.5451
 Spin= Alpha
 Occup=    0.000000
1 0.0
2 0.0
3 0.0
4 0.0
5 0.0
6 0.0
7 0.0
8 0.0
9 0.0
10 0.0
11 0.0
12 0.0
13 0.0
14 0.0
15 0.0
16 0.0
17 1.05225824490075
18 0.0
19 0.0
20 0.0
21 0.0
22 0.0
23 -0.33787221880547
24 0.0
25 0.0
26 0.0
27 0.0
28 0.0
29 0.33787221880547
30 0.0
31 0.0
 Sym=     11.1
 Ene=       3.7221
 Spin= Alpha
 Occup=    0.000000
1 0.000335537503947
2 0.001148612005254
3 -0.065642117878844
4 0.61324761544964
5 0.0
6 0.0
7 0.033322115000868
8 0.0
9 0.0
10 0.014263933639747
11 0.0
12 0.0
13 0.56283591433215
14 -0.35352811121199
15 -0.71235887757700
16 1.06588698878899
17 0.0
18 0.0
19 0.0
20 -0.016771107090850
21 -0.41114762358732
22 0.025981449741185
23 0.0
24 0.35143101199734
25 -0.26287302632877
26 -0.016771107090850
27 -0.41114762358732
28 0.025981449741185
29 0.0
30 -0.35143101199734
31 -0.26287302632877
 Sym=     12.1
 Ene=       4.0000
 Spin= Alpha
 Occup=    0.000000
1 0.022231324959640
2 0.044166951193392
3 -0.11974058463578
4 -2.04871825813706
5 0.0
6 0.0
7 -0.30860377161207
8 0.0
9 0.0
10 -0.12882036982309
11 0.0
12 0.0
13 -0.98469852511578
14 1.04879064429324
15 -0.85932888308568
16 -0.18946176120756
17 0.0
18 0.0
19 0.0
20 0.31601724587766
21 1.09069995525377
22 0.046125195476617
23 0.0
24 -0.57395195534574
25 -0.46588219295544
26 0.31601724587766
27 1.09069995525377
28 0.046125195476617
29 0.0
30 0.57395195534574
31 -0.46588219295544
 Sym=      8.3
 Ene=       4.2732
 Spin= Alpha
 Occup=    0.000000
1 0.0
2 0.0
3 0.0
4 0.0
5 0.0
6 0.45232093185142
7 0.0
8 0.0
9 -0.035968991996735
10 0.0
11 0.0
12 0.91444190224706
13 0.0
14 0.0
15 0.0
16 0.0
17 0.0
18 0.0
19 1.15614057746196
20 -0.40804824962953
21 -0.50070336763247
22 -0.23117793451657
23 0.0
24 0.46131460277782
25 0.36759659205262
26 0.40804824962953
27 0.50070336763247
28 0.23117793451657
29 0.0
30 0.46131460277782
31 -0.36759659205262
 Sym=      5.2
 Ene=       5.3260
 Spin= Alpha
 Occup=    0.000000
1 0.0
2 0.0
3 0.0
4 0.0
5 1.27046725316292
6 0.0
7 0.0
8 -1.37393177828016
9 0.0
10 0.0
11 0.48122759278994
12 0.0
13 0.0
14 0.0
15 0.0
16 0.0
17 0.0
18 -0.028529812690523
19 0.0
20 0.0
21 0.0
22 0.0
23 0.058801894241240
24 0.0
25 0.0
26 0.0
27 0.0
28 0.0
29 0.058801894241240
30 0.0
31 0.0
 Sym=     13.1
 Ene=       5.7612
 Spin= Alpha
 Occup=    0.000000
1 0.022586477353504
2 0.042376901240195
3 -0.22514996531324
4 -1.01441337566256
5 0.0
6 0.0
7 1.26257752867884
8 0.0
9 0.0
10 -1.72371380100491
11 0.0
12 0.0
13 0.085377283823644
14 0.36448752387572
15 -0.25156463292399
16 -0.11292289095173
17 0.0
18 0.0
19 0.0
20 0.28783912572931
21 0.49365938887501
22 0.013449383880718
23 0.0
24 -0.46289785452702
25 -0.27848627502692
26 0.28783912572931
27 0.49365938887501
28 0.013449383880718
29 0.0
30 0.46289785452702
31 -0.27848627502692
 Sym=      9.3
 Ene=       6.1805
 Spin= Alpha
 Occup=    0.000000
1 0.0
2 0.0
3 0.0
4 0.0
5 0.0
6 -1.25430988658154
7 0.0
8 0.0
9 1.98720072690875
10 0.0
11 0.0
12 -0.15824305732918
13 0.0
14 0.0
15 0.0
16 0.0
17 0.0
18 0.0
19 0.65242991614937
20 -0.34631773990307
21 -0.48924296998647
22 0.15148604960625
23 0.0
24 0.51081163091714
25 0.46624197448410
26 0.34631773990307
27 0.48924296998647
28 -0.15148604960625
29 0.0
30 0.51081163091714
31 -0.46624197448410
 Sym=     14.1
 Ene=      51.5502
 Spin= Alpha
 Occup=    0.000000
1 -2.24715697820821
2 2.33609299929748
3 -0.26644437779670
4 0.074157510335388
5 0.0
6 0.0
7 0.018432606075427
8 0.0
9 0.0
10 -0.071534093209782
11 0.0
12 0.0
13 -0.009427755811595
14 0.023065140371738
15 -0.018970012442803
16 -0.004095127928935
17 0.0
18 0.0
19 0.0
20 0.005557311719280
21 0.065523774361187
22 -0.030465550302053
23 0.0
24 -0.057668111373109
25 -0.045591410370254
26 0.005557311719280
27 0.065523774361187
28 -0.030465550302053
29 0.0
30 0.057668111373109
31 -0.045591410370254
 [FREQ]
      0.00
      0.00
      0.00
      0.00
      0.00
      0.00
   1689.01
   3904.22
   3997.82
 [FR-COORD]
O          0.0000000000        0.0000000000       -0.1263908624
H          0.0000000000        1.4131092460        1.0029570951
H          0.0000000000       -1.4131092460        1.0029570951
 [FR-NORM-COORD]
 Vibration                    1
          0.00000000          0.14648838         -0.04123323
         -0.52909408          0.17200484         -0.07316098
          0.52927716          0.17200484         -0.00930548
 Vibration                    2
         -0.00000000          0.07293000          0.19524182
         -0.04578062         -0.16064397          0.48750386
          0.04537788         -0.16064397         -0.09702023
 Vibration                    3
          0.00000000         -0.00176657          0.00017180
          0.69958753         -0.00246019          0.00103970
          0.70904822         -0.00246019         -0.00069610
 Vibration                    4
          0.25003978          0.00000000         -0.00000000
         -0.00000000          0.00000000         -0.00000000
         -0.00000000          0.00000000          0.00000000
 Vibration                    5
         -0.00000000          0.16707776         -0.00564042
          0.46248115          0.24168030         -0.09898768
         -0.44777380          0.24168030          0.08770683
 Vibration                    6
          0.00000000         -0.05796248          0.12518623
         -0.08299287          0.31808880         -0.34535214
          0.08241079          0.31808880          0.59572460
 Vibration                    7
         -0.00000000          0.00000000         -0.06722457
         -0.00000000         -0.41914990          0.53345122
          0.00000000          0.41914990          0.53345122
 Vibration                    8
         -0.00000000          0.00000000         -0.04977715
         -0.00000000          0.56606646          0.39499961
          0.00000000         -0.56606646          0.39499961
 Vibration                    9
          0.00000000         -0.06681697         -0.00000000
         -0.00000000          0.53021677          0.42374588
         -0.00000000          0.53021677         -0.42374588
