[Molden Format]
[Molpro variables]
_NUMVAR=  1061.000000000000    
_AVOGAD= 0.6022140760000000E+24
_BOLTZ= 0.1380649000000000E-22
_CLIGHTSI=  299792458.0000000    
_JOULE= 0.4359744722207100E-17
_JPCAL=  4.184000000000000    
_PLANCK= 0.6626070150000000E-33
_BOHR= 0.5291772109030000E-10
_ECHARG= 0.1602176634000000E-18
_ENULL= 0.8854187812800001E-11
_MU= 0.1660539066600000E-26
_EMASS= 0.9109383701500001E-30
_AMU2AU=  1822.888486217313    
_CLIGHT=  29979245800.00000    
_EV= 0.3674932217565494E-01
_KJOULE= 0.3808798847133432E-03
_KJOULE/MOL= 0.3808798847133432E-03
_CM= 0.4556335252912009E-05
_CM-1= 0.4556335252912009E-05
_DEB2SI= 0.3335640951981520E-29
_KCAL= 0.1593601437640628E-02
_KCAL/MOL= 0.1593601437640628E-02
_KELVIN= 0.3166811563455608E-05
_HERTZ= 0.1519829846057038E-15
_HZ= 0.1519829846057038E-15
_TOA= 0.5291772109030000    
_TOANG= 0.5291772109030000    
_TORAD= 0.1745329251994330E-01
_TOCM=  219474.6313631965    
_TODEBYE=  2.541746473194078    
_TOE= 0.4803204712570263E-09
_TOEV=  27.21138624598803    
_TOHERTZ=  6579683920501656.    
_TOHZ=  6579683920501656.    
_TOK=  315775.0248040668    
_TOKCAL=  627.5094740630558    
_TOKELVIN=  315775.0248040668    
_TOKJ=  2625.499639479825    
_TOKJOULE=  2625.499639479825    
_TOKG= 0.1660539066600000E-26
_ANG=  1.889726124625770    
_ANGSTROM=  1.889726124625770    
_RPAREF=  0.000000000000000    
_RPADISS=  0.000000000000000    
_IGNORE_UNDEF=  2.000000000000000    
_STRICTCHECK=  0.000000000000000    
!SEWARD=  0.000000000000000    
!MULTI=  0.000000000000000    
!DFMULTI=  0.000000000000000    
_SEW_ONEEL=  0.000000000000000    
_CPPDONE=FALSE
_DKROLL_DONE=  0.000000000000000    
_FNUC_DONE=  0.000000000000000    
_FOCKDONE=TRUE
_GRADONE=FALSE
_HESSDONE=TRUE
_INTDONE=TRUE
_SCFDONE=TRUE
_MODUL_BLOCK=FALSE
_MODUL_CUDA=FALSE
_MODUL_SLATER=FALSE
_MODUL_MRCC=FALSE
_MODUL_NBO6=FALSE
_MODUL_NECI=FALSE
_MODUL_AIMS=TRUE
_MODUL_GECCO=FALSE
_ISWINDOWS=FALSE
_MRCC_EXEC=
_FITC_AO_SAVED=FALSE
_FITC_MO_SAVED=FALSE
_SHARED_FS=TRUE
_LSTYP=SEWARD
_INTYP=INTS
_GEOMTYP=ZMAT
_GRADTYP=ALASKA
_DIRECT=FALSE
_DKHO= -1.000000000000000    
_FNUC=  0.000000000000000    
_SYNCM=  0.000000000000000    
_BASIS=6-311G(D,P)
_ZCENTRE=MASS
_ZORIENT=  1.000000000000000    
_NELEC=  50.00000000000000    
!SPIN=  0.000000000000000    
_OPTCONV= 0.8490027143095014E-02
_QSDSTEP=  0.000000000000000    
_QSDIRC=  0.000000000000000    
_PROGRAM=FREQ
_CPUSTEP=  478.9300000000001    
_SYSSTEP=  4.160000000000000    
_WALLSTEP=  199.1800000000000    
!DFSCF=  0.000000000000000    
!SCSGRD=  0.000000000000000    
_CPUTOT=  1048.490000000000    
_DFTEXFAC=  1.000000000000000    
_DMX= 0.1475508906920851    
_DMY= 0.1263241923507924E-01
_DMZ= 0.5521156095335874E-02
_DMX_SCF= 0.1475508906920851    
_DMY_SCF= 0.1263241923507924E-01
_DMZ_SCF= 0.5521156095335874E-02
_FREQUENCIES= 0.1076522621719793E-04
_HOMO=  25.10000000000000    
_EHOMO=-0.4752195397622200    
_LUMO=  26.10000000000000    
_ELUMO= 0.1267048276968587    
_ENERGY= -642.1404947486553    
_ENERGY_METHOD=HF
_ENERGY_BASIS=6-311G(D,P)
_GEOMETRY_METHOD=HF
_GEOMETRY_BASIS=6-311G(D,P)
_ENUC=  284.4275629632345    
_GRADENERG= -642.1404942539341    
_GRADEXFAC=  9999.000000000000    
_GRADMETHOD=  1.000000000000000    
_NMRMETHOD=  0.000000000000000    
_NMRMAGNET=  0.000000000000000    
_VIRIAL=-0.6100034174016532E-03
!GRID_FREEZE= -1.000000000000000    
!NEESE_INDEX=  0.000000000000000    
_ITERATIONS=  11.00000000000000    
_LASTNELEC=  50.00000000000000    
_LASTSPIN=  0.000000000000000    
_LASTSYM=  1.000000000000000    
_MPP_PROG=  1.000000000000000    
_MSNSTATES=  0.000000000000000    
_RS2PHASE=  0.000000000000000    
_IPROC_MPP=  0.000000000000000    
_IPROC_MPPX=  0.000000000000000    
_NPROC_MPP=  6.000000000000000    
_NPROC_MPPX=  6.000000000000000    
_NPROC_SMP=  8.000000000000000    
_NUMSTEP=  0.000000000000000    
_OPTCONVMX= 0.7452778821336555E-02
_OPTCONVRMS= 0.3001677882670264E-02
_OPTGRAD= 0.4097459004146526E-03
_OPTGRADMX= 0.2707626721175520E-03
_OPTGRADRMS= 0.2276366113414737E-04
_OPTSTEP=  22.00000000000000    
_ORBITAL=  2100.200000000000    
_PI=  3.141592653589793    
_SEIG_MIN= 0.8716611276639273E-02
_SEWPROP=TRUE
_STATUS=  1.000000000000000    
_SYSTOT=  11.87000000000000    
_VERSION=  2022002.000000000    
_WALLTOT=  455.3300000000000    
_ZPE= 0.5289685322165055E-01
_DATE=04-Aug-25
_LASTORB=0
_OUTPUT=/home/zwa/Overlap_Integral_Project/overlap_integral_gaussian/molpro_files/H3PO4/H3PO4.out
_PGROUP=C1
_TIME=14:49:06
_LIBMOL=/usr/local/molpro/molpro_2022.2.3_sockets/lib/
_VIGRDC=  0.000000000000000    
!VIBCNT=  0.000000000000000    
!RGHFCNT=  0.000000000000000    
!SURFREC=  0.000000000000000    
!XSURFREC=  0.000000000000000    
!XPOLYREC=  0.000000000000000    
!ROTREC=  0.000000000000000    
!POLYREC=  0.000000000000000    
!DIPREC=  0.000000000000000    
!DIP4DREC=  0.000000000000000    
!DIPROT=  0.000000000000000    
!DIP4DROT=  0.000000000000000    
!PTREC=  0.000000000000000    
!PT4DREC=  0.000000000000000    
!VSCFREC=  0.000000000000000    
!VCIREC=  0.000000000000000    
!PVCIREC=  0.000000000000000    
!VMP2REC=  0.000000000000000    
!VMCSCFREC=  0.000000000000000    
!VMRCIREC=  0.000000000000000    
!VIBSTATEREC=  0.000000000000000    
!VIBSTATECNT=  0.000000000000000    
!VIBINFO=  0.000000000000000    
!GAREC=  0.000000000000000    
!SCFORB=  21002.00000000000    
!DEFCORE=  9.000000000000000    
!SCORE=  1.000000000000000    
!NEWMOL=  0.000000000000000    
!NEWSYM=  0.000000000000000    
_SLFILES=slscratch
_NGSSTO=  9.000000000000000    
_SIN=SIN
_COS=COS
_TAN=TAN
_ACOS=ACOS
_ASIN=ASIN
_ATAN=ATAN
_COSH=COSH
_SINH=SINH
_TANH=TANH
_ABS=ABS
_MOD=MOD
_ERF=ERF
_REFC=REFC
_ERFC=ERFC
_HYPOT=HYPOT
_J0=J0
_J1=J1
_JN=JN
_GAMMA=GAMMA
_LGAMMA=LGAMMA
_Y0=Y0
_Y1=Y1
_YN=YN
_EXP=EXP
_LOG=LOG
_LOG10=LOG10
_SQRT=SQRT
_INT=INT
_NINT=NINT
_MAX=MAX
_MIN=MIN
_COSMO=  0.000000000000000    
_COSMOIT=  0.000000000000000    
_COSMOES=  0.000000000000000    
_COSMOEDS=  0.000000000000000    
_COSMOEC=  0.000000000000000    
_COSMOEDCORR=  0.000000000000000    
_FEPSI=  1.000000000000000    
_SL_IsMM=  0.000000000000000    
_SL_NSYM=  1.000000000000000    
_SL_System_BitSw=  0.000000000000000    
_SL_Unique_atoms=  0.000000000000000    
_SL_GRAD=  0.000000000000000    
_SL_MAXUPD_Hess=  5.000000000000000    
_SL_N_PRINT_COD=  5.000000000000000    
_SL_PRINT_CODES=  0.000000000000000    
_SL_BasType=  0.000000000000000    
_SL_Energy_Pred=  0.000000000000000    
_SL_New_Coords=  0.000000000000000    
_SL_Total_Nuclea=  0.000000000000000    
_SL_Highest_Mltp=  0.000000000000000    
_SL_Ref_Geom=  0.000000000000000    
_SL_Symmetry_ope=  1.000000000000000    
_SL_agrad=  0.000000000000000    
_SL_GrdMax=  0.000000000000000    
_SL_GrdNorm=  0.000000000000000    
_SL_GrdRMS=  0.000000000000000    
_SL_Hss_Q=  0.000000000000000    
_SL_Hss_X=  0.000000000000000    
_SL_BMxOld=  0.000000000000000    
_SL_KtB=  0.000000000000000    
_SL_TROld=  0.000000000000000    
_SL_No_of_Intern=  0.000000000000000    
_SL_Hess=  0.000000000000000    
_SL_K=  0.000000000000000    
!LATTICE= -1.000000000000000    
!NEWLATTICE=  0.000000000000000    
!LATGRAD_VAR=FALSE
!SEW_LATTICE=  1.000000000000000    
!AIC_ONEEL=  0.000000000000000    
!LOCAL=  0.000000000000000    
!SAVEDOM= -1.000000000000000    
!RESTDOM= -1.000000000000000    
!SAVEDOM_HF= -1.000000000000000    
!RESTDOM_HF= -1.000000000000000    
!HESSREC=  5300.200000000000    
!FREQREC=  5400.200000000000    
!NMODREC=  5450.200000000000    
!GTASKS=  0.000000000000000    
!HTASKS=  0.000000000000000    
!SAVEDOM_EOM= -1.000000000000000    
!RESTDOM_EOM= -1.000000000000000    
!GRADSTATE= -1.000000000000000    
!DEBUG=  0.000000000000000    
!CFIT_CPHF=  0.000000000000000    
!RDOMAUX_CPHF=  0.000000000000000    
!THRAO_CPHF= 0.1000000000000000E-11
!THRMO_CPHF= 0.1000000000000000E-11
!THROV_CPHF= 0.1000000000000000E-11
!THRSW_CPHF= 0.1000000000000000E-11
!THRPROD_CPHF= 0.1000000000000000E-11
!THRAOPR_CPHF= 0.1000000000000000E-11
!CFIT_SCFGRD=  0.000000000000000    
!RDOMAUX_SCFGRD=  0.000000000000000    
!THRAO_SCFGRD= 0.1000000000000000E-11
!THRMO_SCFGRD= 0.1000000000000000E-11
!THROV_SCFGRD= 0.1000000000000000E-11
!THRSW_SCFGRD= 0.1000000000000000E-11
!THRPROD_SCFGRD= 0.1000000000000000E-11
!THRAOPR_SCFGRD= 0.1000000000000000E-11
!LOCFIT_SCF=  0.000000000000000    
!LOCFIT_MP2=  0.000000000000000    
_RIDOM=  0.000000000000000    
!CC2_METHOD=  0.000000000000000    
_BASIS2006=FALSE
_SVDDEL= -1.000000000000000    
_SVDDELA= -1.000000000000000    
_SVDDELP= -1.000000000000000    
_SVDDELF= -1.000000000000000    
_SVDDELS= -1.000000000000000    
_SVDDEL_ABS= -1.000000000000000    
_SVDDELA_ABS= -1.000000000000000    
_SVDDELP_ABS= -1.000000000000000    
_SVDDELF_ABS= -1.000000000000000    
_SVDDELS_ABS= -1.000000000000000    
_MAXBASIS=  0.000000000000000    
!OPT_CONICAL=  0.000000000000000    
!CLEARSP_JGRID=  0.000000000000000    
_GRDHYBR=  0.000000000000000    
_STATEGRAD=  1.000000000000000    
_4EXT_NDISKS=  1.000000000000000    
!EMBEDFLAG=  1.000000000000000    
!EMBED=FALSE
!EMBED_F12=FALSE
!EMBEDNUC=  0.000000000000000    
_EMBEDENERGY=  0.000000000000000    
!EMBED_DFC=FALSE
!NUM_VOIDS=  0.000000000000000    
_IBODY=  0.000000000000000    
_EMBE_CORR=  0.000000000000000    
!EMBED_PROJ=FALSE
!EMB_PROJ_ZMU=  1000000.000000000    
!CORRECTION_HF=  0.000000000000000    
!EMBED_AORB=  0.000000000000000    
!EMBED_NACORR=  0.000000000000000    
!EMBED_MP2=FALSE
!EMBED_TRUNC_PERTURBATION=FALSE
!EMBED_FROZEN=  0.000000000000000    
!EMBED_ACTIVE=  0.000000000000000    
_CHANGE_BASIS=FALSE
_RESTORE_BASIS=FALSE
_FIX_EMBED_GUESS=FALSE
_EMBED_SCF=FALSE
_HUZINAGA_T=FALSE
_HUZINAGA_F=FALSE
_HUZINAGA=FALSE
_HUZINAGA_CORRECT=FALSE
!FASTLATGRAD=  1.000000000000000    
!FASTVLAMBDA= -1.000000000000000    
!IFORCE= -1.000000000000000    
!USESYM= -1.000000000000000    
_SINDEX=  0.000000000000000    
_AVDOM_OSV=  0.000000000000000    
_AVDOM_PNO=  0.000000000000000    
_AVDOM_PAO=  0.000000000000000    
_AVDOM_LMO=  0.000000000000000    
_CC2OSV_FLAG=  0.000000000000000    
_EOMCCSD_CONV=FALSE
_TMADC2_FLAG=FALSE
_PROPADC2_FLAG=FALSE
_LEN_VirQ=  0.000000000000000    
_GRDCC2LR_FLAG=FALSE
_GRDADC2_FLAG=FALSE
_RO_VGLOBAL=  0.000000000000000    
_OPT=FALSE
_FREQ=FALSE
_HESS=FALSE
_CMRCC_callName=EMPTY
_CMRCC_callCount=  0.000000000000000    
_GECCO_CIROOT=  1.000000000000000    
_SYM_CATION=  1.000000000000000    
_MON_A=FALSE
_MON_B=FALSE
GX1= 0.5100205249912533    
GY1=  1.309673631218351    
GZ1= 0.6034341093408491    
GX2= 0.4735962860069930E-01
GY2=  2.099955144887908    
GZ2= 0.3767811267424196    
GX3= 0.6649151673690440    
GY3=-0.1455905646160351    
GZ3= -1.369815536803170    
GX4= 0.2448928974603980    
GY4=-0.7128185787993989    
GZ4= -1.995851049451744    
GX5= -1.541895488428838    
GY5=-0.3110467602731836E-01
GZ5=-0.9930815945417984E-01
GX6= 0.5414432913631477    
GY6= -1.130154910256441    
GZ6= 0.8771311255089939    
GX7= 0.3324514199399826E-01
GY7= -1.368930257107486    
GZ7=  1.635271628566022    
GX8=-0.1006946683589685    
GY8=-0.2050448086731547E-02
GZ8=-0.6435604339075408E-02
OX1= 0.9637991101713218    
OY1=  2.474924475646814    
OZ1=  1.140325200911686    
HX2= 0.8949672741931528E-01
HY2=  3.968340097836974    
HZ2= 0.7120131384710837    
OX3=  1.256507562437199    
OY3=-0.2751262934539378    
OZ3= -2.588576205815224    
HX4= 0.4627805060662140    
HY4= -1.347031890475837    
HZ4= -3.771611869010721    
OX5= -2.913760185926588    
OY5=-0.5877931888684443E-01
OZ5=-0.1876652233090653    
OX6=  1.023179532692303    
OY6= -2.135683258785689    
OZ6=  1.657537602596751    
HX7= 0.6282421334295180E-01
HY7= -2.586903269646688    
HZ7=  3.090215517360542    
PX8=-0.1902853454084707    
PY8=-0.3874785316685531E-02
PZ8=-0.1216152964730577E-01
[Atoms] Angs
O     1    8         0.5100205250        1.3096736312        0.6034341093
H     2    1         0.0473596286        2.0999551449        0.3767811267
O     3    8         0.6649151674       -0.1455905646       -1.3698155368
H     4    1         0.2448928975       -0.7128185788       -1.9958510495
O     5    8        -1.5418954884       -0.0311046760       -0.0993081595
O     6    8         0.5414432914       -1.1301549103        0.8771311255
H     7    1         0.0332451420       -1.3689302571        1.6352716286
P     8   15        -0.1006946684       -0.0020504481       -0.0064356043
[GTO]
   1 0
 s    6  1.00
  0.8588500000D+04  0.1895150083D-02
  0.1297230000D+04  0.1438590063D-01
  0.2992960000D+03  0.7073200310D-01
  0.8737710000D+02  0.2400010105D+00
  0.2567890000D+02  0.5947970261D+00
  0.3740040000D+01  0.2808020123D+00
 s    3  1.00
  0.4211750000D+02  0.1138890124D+00
  0.9628370000D+01  0.9208111006D+00
  0.2853320000D+01 -0.3274470358D-02
 s    1  1.00
  0.9056610000D+00  0.1000000000D+01
 s    1  1.00
  0.2556110000D+00  0.1000000000D+01
 p    3  1.00
  0.4211750000D+02  0.3651139738D-01
  0.9628370000D+01  0.2371529830D+00
  0.2853320000D+01  0.8197019412D+00
 p    1  1.00
  0.9056610000D+00  0.1000000000D+01
 p    1  1.00
  0.2556110000D+00  0.1000000000D+01
 d    1  1.00
  0.1292000000D+01  0.1000000000D+01
  
   2 0
 s    3  1.00
  0.3386500000D+02  0.2549381454D-01
  0.5094790000D+01  0.1903731086D+00
  0.1158790000D+01  0.8521614860D+00
 s    1  1.00
  0.3258400000D+00  0.1000000000D+01
 s    1  1.00
  0.1027410000D+00  0.1000000000D+01
 p    1  1.00
  0.7500000000D+00  0.1000000000D+01
  
   3 0
 s    6  1.00
  0.8588500000D+04  0.1895150083D-02
  0.1297230000D+04  0.1438590063D-01
  0.2992960000D+03  0.7073200310D-01
  0.8737710000D+02  0.2400010105D+00
  0.2567890000D+02  0.5947970261D+00
  0.3740040000D+01  0.2808020123D+00
 s    3  1.00
  0.4211750000D+02  0.1138890124D+00
  0.9628370000D+01  0.9208111006D+00
  0.2853320000D+01 -0.3274470358D-02
 s    1  1.00
  0.9056610000D+00  0.1000000000D+01
 s    1  1.00
  0.2556110000D+00  0.1000000000D+01
 p    3  1.00
  0.4211750000D+02  0.3651139738D-01
  0.9628370000D+01  0.2371529830D+00
  0.2853320000D+01  0.8197019412D+00
 p    1  1.00
  0.9056610000D+00  0.1000000000D+01
 p    1  1.00
  0.2556110000D+00  0.1000000000D+01
 d    1  1.00
  0.1292000000D+01  0.1000000000D+01
  
   4 0
 s    3  1.00
  0.3386500000D+02  0.2549381454D-01
  0.5094790000D+01  0.1903731086D+00
  0.1158790000D+01  0.8521614860D+00
 s    1  1.00
  0.3258400000D+00  0.1000000000D+01
 s    1  1.00
  0.1027410000D+00  0.1000000000D+01
 p    1  1.00
  0.7500000000D+00  0.1000000000D+01
  
   5 0
 s    6  1.00
  0.8588500000D+04  0.1895150083D-02
  0.1297230000D+04  0.1438590063D-01
  0.2992960000D+03  0.7073200310D-01
  0.8737710000D+02  0.2400010105D+00
  0.2567890000D+02  0.5947970261D+00
  0.3740040000D+01  0.2808020123D+00
 s    3  1.00
  0.4211750000D+02  0.1138890124D+00
  0.9628370000D+01  0.9208111006D+00
  0.2853320000D+01 -0.3274470358D-02
 s    1  1.00
  0.9056610000D+00  0.1000000000D+01
 s    1  1.00
  0.2556110000D+00  0.1000000000D+01
 p    3  1.00
  0.4211750000D+02  0.3651139738D-01
  0.9628370000D+01  0.2371529830D+00
  0.2853320000D+01  0.8197019412D+00
 p    1  1.00
  0.9056610000D+00  0.1000000000D+01
 p    1  1.00
  0.2556110000D+00  0.1000000000D+01
 d    1  1.00
  0.1292000000D+01  0.1000000000D+01
  
   6 0
 s    6  1.00
  0.8588500000D+04  0.1895150083D-02
  0.1297230000D+04  0.1438590063D-01
  0.2992960000D+03  0.7073200310D-01
  0.8737710000D+02  0.2400010105D+00
  0.2567890000D+02  0.5947970261D+00
  0.3740040000D+01  0.2808020123D+00
 s    3  1.00
  0.4211750000D+02  0.1138890124D+00
  0.9628370000D+01  0.9208111006D+00
  0.2853320000D+01 -0.3274470358D-02
 s    1  1.00
  0.9056610000D+00  0.1000000000D+01
 s    1  1.00
  0.2556110000D+00  0.1000000000D+01
 p    3  1.00
  0.4211750000D+02  0.3651139738D-01
  0.9628370000D+01  0.2371529830D+00
  0.2853320000D+01  0.8197019412D+00
 p    1  1.00
  0.9056610000D+00  0.1000000000D+01
 p    1  1.00
  0.2556110000D+00  0.1000000000D+01
 d    1  1.00
  0.1292000000D+01  0.1000000000D+01
  
   7 0
 s    3  1.00
  0.3386500000D+02  0.2549381454D-01
  0.5094790000D+01  0.1903731086D+00
  0.1158790000D+01  0.8521614860D+00
 s    1  1.00
  0.3258400000D+00  0.1000000000D+01
 s    1  1.00
  0.1027410000D+00  0.1000000000D+01
 p    1  1.00
  0.7500000000D+00  0.1000000000D+01
  
   8 0
 s    6  1.00
  0.7749240000D+05  0.7810001470D-03
  0.1160580000D+05  0.6068001142D-02
  0.2645960000D+04  0.3116000587D-01
  0.7549760000D+03  0.1234310232D+00
  0.2487550000D+03  0.3782090712D+00
  0.9115650000D+02  0.5632621060D+00
 s    3  1.00
  0.9115650000D+02  0.1602550115D+00
  0.3622570000D+02  0.6276470449D+00
  0.1521130000D+02  0.2638490189D+00
 s    1  1.00
  0.4794170000D+01  0.1000000000D+01
 s    1  1.00
  0.1807930000D+01  0.1000000000D+01
 s    1  1.00
  0.3568160000D+00  0.1000000000D+01
 s    1  1.00
  0.1147830000D+00  0.1000000000D+01
 p    4  1.00
  0.3848430000D+03  0.9205998880D-02
  0.9055210000D+02  0.6987399150D-01
  0.2913390000D+02  0.2924699644D+00
  0.1088620000D+02  0.7281029114D+00
 p    2  1.00
  0.4352590000D+01  0.6283488727D+00
  0.1777060000D+01  0.4280439133D+00
 p    1  1.00
  0.6970050000D+00  0.1000000000D+01
 p    1  1.00
  0.2535320000D+00  0.1000000000D+01
 p    1  1.00
  0.6849300000D-01  0.1000000000D+01
 d    1  1.00
  0.5500000000D+00  0.1000000000D+01


[MO]
 Sym=      1.1
 Ene=     -80.1122
 Spin= Alpha
 Occup=    2.000000
1 0.000000438892886
2 0.000000185040134
3 0.000016639748440
4 -0.000086573921138
5 -0.000001875391749
6 -0.000004165879848
7 -0.000001823103593
8 0.000007150955768
9 0.000011984105367
10 0.000006499028243
11 0.000035950992121
12 0.000024391888758
13 0.000028309980347
14 0.000004401355654
15 -0.000011642636355
16 0.000007241280701
17 -0.000007680723044
18 -0.000008245579489
19 -0.000009613534527
20 -0.000000613428254
21 0.000032325372552
22 0.000000556834482
23 -0.000002053982973
24 -0.000014786858523
25 -0.000003144893550
26 0.000000440252004
27 0.000000176778554
28 0.000016709162511
29 -0.000086900433905
30 -0.000002369694531
31 0.000000555667479
32 0.000004267118802
33 0.000008679863136
34 -0.000000580228243
35 -0.000012679436197
36 0.000040336232053
37 0.000011136483393
38 -0.000030901339845
39 0.000001840763607
40 0.000010033614277
41 -0.000011874377884
42 -0.000002551636439
43 0.000012674668495
44 -0.000005238990796
45 -0.000000607563381
46 0.000032557844385
47 0.000000462678218
48 -0.000003447913599
49 0.000004692910573
50 0.000014152349990
51 0.000000144210567
52 0.000001474261091
53 0.000012500661212
54 -0.000097054542464
55 0.000003795655355
56 0.000000080567921
57 0.000000247300476
58 -0.000025605308845
59 -0.000000529059821
60 -0.000001657965721
61 -0.000065554253328
62 -0.000001293742706
63 -0.000004189897773
64 -0.000021428869299
65 0.000010772636849
66 0.000010656232451
67 -0.000000747056961
68 -0.000002387669623
69 -0.000000048064336
70 0.000000440350956
71 0.000000175778929
72 0.000016704701490
73 -0.000086771555808
74 -0.000001969908935
75 0.000003484645246
76 -0.000002848934634
77 0.000007556309457
78 -0.000010950603883
79 0.000007711133552
80 0.000038391994642
81 -0.000033515745090
82 0.000010086252624
83 0.000003177617140
84 -0.000003008202255
85 -0.000000169414885
86 0.000010575909973
87 -0.000003453403614
88 0.000014876769131
89 -0.000000603534437
90 0.000032463715832
91 0.000000480814588
92 -0.000001967353324
93 0.000009919279687
94 -0.000011447591817
95 0.41926970056093
96 0.64664039646847
97 0.010763417551278
98 -0.001071146129906
99 0.000437917232546
100 0.000006813944639
101 0.000081838901409
102 0.000001669682832
103 0.000005288315647
104 -0.000027429789176
105 -0.000000557132662
106 -0.000001777545900
107 0.000018934698925
108 0.000000378000052
109 0.000001258802967
110 -0.000025883934910
111 -0.000000563488504
112 -0.000001810165300
113 -0.000002104237454
114 -0.000000093792829
115 -0.000000155837271
116 0.000009898049972
117 -0.000005019139004
118 -0.000004878910969
119 0.000000356898453
120 0.000001140303275
121 0.000000014489570
 Sym=      2.1
 Ene=     -20.6057
 Spin= Alpha
 Occup=    2.000000
1 0.43965699642896
2 0.37605345262184
3 0.004589627550168
4 -0.000502225404876
5 -0.000994480080532
6 0.000041731647278
7 -0.000730240181343
8 0.000316070697152
9 -0.000072907397629
10 0.000228357998228
11 -0.000022314170449
12 0.000123576771993
13 -0.000035491189599
14 0.000018979232705
15 -0.000048858347964
16 0.000029879115259
17 0.000014286943406
18 -0.000025253415598
19 -0.000004172387013
20 0.000146214652625
21 0.000051991253396
22 0.000070378134284
23 -0.000010061162863
24 -0.000054815899230
25 -0.000018455472312
26 -0.33243892467629
27 -0.28434582032562
28 -0.003465366597358
29 0.000296940575353
30 0.000794900180982
31 0.000461919808802
32 -0.000155837366226
33 -0.000241967441835
34 -0.000176139670197
35 0.000006724305948
36 0.000027563934904
37 0.000073964366320
38 0.000075085213402
39 -0.000009805283461
40 -0.000012883221089
41 0.000022688504550
42 0.000017168073275
43 -0.000007119773555
44 0.000021462438277
45 -0.000114722496892
46 0.000013034405286
47 0.000008630701518
48 0.000014663852963
49 -0.000000012438125
50 -0.000020215309956
51 -0.000008996535753
52 -0.000008133120344
53 0.000004047041207
54 -0.000010049218551
55 -0.000000947373463
56 -0.000003989625679
57 -0.000008561185381
58 0.000002706890210
59 -0.000000381610473
60 0.000016041406615
61 -0.000004849117625
62 -0.000034635913912
63 -0.000082773887715
64 0.000001418644357
65 -0.000002551701030
66 0.000001133056673
67 -0.000006071310462
68 -0.000009533784931
69 -0.000001503023484
70 -0.015632634577969
71 -0.013372461327429
72 -0.000157368507260
73 0.000046482292655
74 0.000038107916183
75 -0.000021390649754
76 -0.000010483066633
77 -0.000014579127604
78 0.000001250465193
79 -0.000003883092002
80 -0.000032262766463
81 -0.000023072859687
82 0.000022330019358
83 -0.000001163097345
84 -0.000006700356418
85 0.000007863453763
86 0.000000921476307
87 -0.000005482148283
88 -0.000006011554750
89 0.000001496991900
90 -0.000070932440025
91 -0.000075064282206
92 -0.000004863702006
93 -0.000019243249279
94 0.000021808587601
95 0.000000537960146
96 0.000001216522997
97 -0.000000602210091
98 -0.000013114703706
99 0.000015486523504
100 0.000084582246922
101 -0.000000228643127
102 -0.000008431697383
103 -0.000008618363518
104 0.000000672873540
105 -0.000035979839508
106 -0.000037003157235
107 -0.000003636758723
108 0.000051512884478
109 0.000064058780828
110 0.000010240725765
111 0.000192281247541
112 0.000164657337107
113 0.000011875197970
114 -0.000007875474872
115 0.000179424213613
116 -0.000012740530300
117 0.000089355118286
118 -0.000076614587986
119 0.000054904462420
120 0.000047170560047
121 0.000043680426597
 Sym=      3.1
 Ene=     -20.6057
 Spin= Alpha
 Occup=    2.000000
1 0.31814391327447
2 0.27211628754934
3 0.003345302545158
4 -0.000436217114975
5 -0.000721620937527
6 0.000034253358727
7 -0.000525192275994
8 0.000232408602862
9 -0.000055801054849
10 0.000173888074312
11 -0.000075312327402
12 0.000172628816607
13 -0.000007102037351
14 0.000014588085270
15 -0.000029610919276
16 0.000015022834006
17 0.000007883364482
18 -0.000014529655190
19 -0.000008630655598
20 0.000116183425042
21 -0.000050321131390
22 -0.000032748590632
23 -0.000011764488458
24 -0.000009790802148
25 -0.000005874120499
26 0.42742631787755
27 0.36559053563245
28 0.004482354939469
29 -0.000618326225302
30 -0.001024826041586
31 -0.000594905628235
32 0.000199437037255
33 0.000329942263767
34 0.000211167525621
35 -0.000015629796445
36 -0.000033011781387
37 -0.000097014518116
38 -0.000142348582145
39 0.000019550036668
40 0.000014839105459
41 -0.000034389142127
42 -0.000023353357083
43 0.000002052120389
44 -0.000041384983642
45 0.000144938444110
46 0.000044788805573
47 0.000072863439799
48 -0.000013486188302
49 0.000014598332178
50 0.000055303432887
51 -0.000060049173895
52 -0.000054326578701
53 0.000027055766771
54 -0.000066502268179
55 -0.000010799263041
56 -0.000006503583719
57 0.000002911495447
58 0.000025392222726
59 0.000012637962909
60 0.000001023947340
61 -0.000073745266004
62 -0.000062654439784
63 0.000027012194708
64 0.000000785149671
65 -0.000000064725115
66 -0.000000720424555
67 -0.000006773519813
68 0.000005613946497
69 -0.000002308266119
70 -0.14195380978138
71 -0.12141976454333
72 -0.001456243140619
73 0.000000134888525
74 0.000344441172000
75 -0.000171434261342
76 -0.000100457038163
77 -0.000099345192887
78 0.000041186491743
79 0.000055543712195
80 -0.000017525741130
81 -0.000038386612897
82 -0.000000783420303
83 -0.000000568713396
84 -0.000003066554491
85 0.000003635267888
86 -0.000007755036997
87 -0.000005975448600
88 -0.000011988493109
89 -0.000044088448520
90 -0.000021772514434
91 -0.000016324672297
92 0.000006257732533
93 -0.000013858269544
94 0.000007809205802
95 0.000003551447944
96 0.000007991877016
97 -0.000003704343197
98 -0.000087138360192
99 0.000103328065641
100 0.000557593302205
101 -0.000006486266593
102 -0.000006273093948
103 0.000006651595474
104 -0.000017415278336
105 -0.000026790147988
106 0.000029172787025
107 0.000012268044630
108 0.000046716252239
109 -0.000043252986625
110 0.000167828651093
111 0.000118702377526
112 -0.000148702934721
113 0.000152128364423
114 0.000139952114959
115 0.000006632559739
116 -0.000035234048751
117 -0.000010452694671
118 0.000045686743422
119 0.000024490201847
120 -0.000057042654955
121 0.000073916583427
 Sym=      4.1
 Ene=     -20.6057
 Spin= Alpha
 Occup=    2.000000
1 0.097701385939601
2 0.083565319556833
3 0.001048182686771
4 -0.000302089681348
5 -0.000223766371634
6 0.000011749874848
7 -0.000161259332012
8 0.000084048107725
9 -0.000007448464137
10 0.000048843052284
11 -0.000032152599292
12 0.000089621769935
13 0.000015158846068
14 0.000008441913649
15 -0.000017559825108
16 0.000009117911459
17 0.000007747637716
18 -0.000002863370588
19 0.000000851496500
20 0.000035092265172
21 0.000016602784371
22 0.000034589707110
23 0.000001389048873
24 -0.000021215535349
25 -0.000001562763965
26 0.10416617579568
27 0.089093681255968
28 0.001118040812349
29 -0.000253095134462
30 -0.000251405085192
31 -0.000144373155654
32 0.000043732216316
33 0.000086887051629
34 0.000056986465723
35 -0.000005788824454
36 -0.000052066838387
37 -0.000043573151914
38 -0.000119140841097
39 0.000006832702155
40 0.000003513314578
41 -0.000010346016733
42 -0.000002998848247
43 0.000000152392967
44 -0.000004041459336
45 0.000043918682478
46 -0.000055562757856
47 -0.000044167516811
48 -0.000003798229253
49 -0.000000978505175
50 -0.000008178424638
51 -0.000072991954322
52 -0.000066019863217
53 0.000032766801158
54 -0.000080504729057
55 -0.000012951126605
56 0.000005433590744
57 -0.000002759546755
58 0.000031254814753
59 -0.000009412878919
60 0.000000618162168
61 -0.000088196912506
62 0.000053141035823
63 -0.000021614954627
64 0.000001565222502
65 -0.000000826686589
66 -0.000000738535913
67 0.000006430983485
68 -0.000003122732361
69 0.000002094602957
70 0.53260147639965
71 0.45554930151518
72 0.005585498532195
73 -0.000729305459468
74 -0.001303361690811
75 0.000630183006367
76 0.000383618207335
77 0.000423178945513
78 -0.000165820049631
79 -0.000182133468076
80 -0.000083562198177
81 -0.000100877319701
82 0.000200890098594
83 0.000019088039879
84 0.000006476698367
85 -0.000025564738246
86 0.000012313736961
87 0.000029063944761
88 0.000053269764918
89 0.000184957099787
90 0.000009079261165
91 0.000038339073038
92 -0.000013732345003
93 0.000038350132663
94 -0.000037135146986
95 0.000004323863679
96 0.000009718936627
97 -0.000004434915499
98 -0.000106234821587
99 0.000126016392143
100 0.000677730401043
101 -0.000007315565979
102 0.000005946034844
103 -0.000005204610473
104 -0.000018762692352
105 0.000025859452099
106 -0.000021475152633
107 0.000011759987455
108 -0.000044412333182
109 0.000029007587433
110 0.000190571863093
111 -0.000115025316459
112 0.000122360705866
113 0.000190738793035
114 -0.000108526605987
115 -0.000006341497634
116 -0.000051445261122
117 0.000038509907340
118 0.000012935353782
119 -0.000029815112858
120 0.000031875266403
121 -0.000066413811237
 Sym=      5.1
 Ene=     -20.5106
 Spin= Alpha
 Occup=    2.000000
1 0.000056596755562
2 0.000046745969167
3 0.000021641316985
4 -0.000098416796701
5 0.000010034427962
6 0.000006240905943
7 0.000002109600350
8 -0.000016709329695
9 -0.000011891773138
10 -0.000003063718181
11 0.000103025859516
12 0.000017922296026
13 0.000020099301488
14 -0.000004604553444
15 -0.000000662264343
16 0.000005266817787
17 0.000000290321974
18 -0.000002775475637
19 0.000001516127386
20 0.000005249137625
21 0.000034379276109
22 -0.000034210459895
23 0.000005941552091
24 -0.000004612699328
25 0.000009080815357
26 0.000056758823110
27 0.000046891915826
28 0.000021680744981
29 -0.000099385014586
30 0.000010608814534
31 -0.000001560176821
32 -0.000005335102558
33 -0.000017644159651
34 0.000003773333360
35 0.000009990935257
36 0.000105780591996
37 0.000005752429697
38 -0.000013530985996
39 -0.000004860436695
40 0.000002869256472
41 0.000001991180223
42 -0.000001930234833
43 0.000000022450793
44 -0.000004019532026
45 0.000005222852922
46 0.000035342954000
47 -0.000034644151249
48 0.000006618576833
49 0.000010059769026
50 0.000000420558664
51 0.55146273567306
52 0.47167762049388
53 0.005510647511623
54 -0.000611144793478
55 0.001647591991070
56 0.000033278383581
57 0.000105702856498
58 -0.000481177378086
59 -0.000009731093078
60 -0.000030853255295
61 0.000013190276770
62 0.000000259821679
63 0.000000797928381
64 0.000027749277969
65 -0.000013951317990
66 -0.000013797959978
67 0.000000929783281
68 0.000003045966603
69 0.000000127542757
70 0.000056632287022
71 0.000046780166800
72 0.000021612192064
73 -0.000098326802907
74 0.000010029588109
75 -0.000004061580765
76 0.000005172052088
77 -0.000016588038401
78 0.000007080661339
79 -0.000010154876512
80 0.000104062169885
81 -0.000017275186078
82 0.000013968702872
83 -0.000005048739780
84 0.000005185705609
85 -0.000000136965830
86 0.000001073511954
87 0.000001010102484
88 0.000002444012994
89 0.000005265602982