
 Working directory              : /tmp/zwa/molpro.bLziykDo0U/
 Global scratch directory       : /tmp/zwa/molpro.bLziykDo0U/
 Wavefunction directory         : /home/zwa/wfu/
 Main file repository           : /tmp/zwa/molpro.bLziykDo0U/

 id        : liedlgroup

 Nodes     nprocs
 rh2-c724     6
 GA implementation: MPI file
 GA implementation (serial work in mppx): MPI file

 Using customized tuning parameters: mindgm=1; mindgv=20; mindgc=4; mindgr=1; noblas=0; minvec=7
 default implementation of scratch files=sf  


 Variables initialized (1015), CPU time= 0.00 sec
 memory,1000,m
 orient,mass
 geometry = {
  O,                 -2.22741778,   -2.61834294,    1.39620941
  H,                 -1.81133595,   -2.96216092,    2.19010179
  O,                 -4.50742765,   -3.42441618,    0.00000000
  H,                 -4.82791240,   -4.32768120,    0.05478900
  O,                 -2.22744721,   -5.03664763,    0.00000000
  O,                 -2.22741778,   -2.61834294,   -1.39620941
  H,                 -1.29469619,   -2.80986888,   -1.51847245
  P,                 -2.79742765,   -3.42443725,    0.00000000
 }
 mass,iso
 basis=6-311g(d,p)
 {hf
 start,atden}
 
 optg
 {frequencies, symm=auto,print=0,analytical}
 put,molden,H3PO4.molden
 Commands initialized (834), CPU time= 0.00 sec, 672 directives.
 Default parameters read. Elapsed time= 0.09 sec

 Checking input...
 Passed
1


                                         ***  PROGRAM SYSTEM MOLPRO  ***
                                       Copyright, TTI GmbH Stuttgart, 2015
                                    Version 2022.2 linked Thu Sep 29 12:37:28 2022


 **********************************************************************************************************************************
 LABEL *                                                                                 
  (8 PROC) 64 bit mpp version                                                            DATE: 04-Aug-25          TIME: 14:49:06  
 **********************************************************************************************************************************

 SHA1:             51306cdc306ce2a111a2867affebcb289530e0a7
 **********************************************************************************************************************************

 Memory per process:      1000 MW
 Total memory per node:   6000 MW

 GA preallocation disabled
 GA check disabled

 Variable memory set to 1000.0 MW

 ZCENTRE=MASS


 Geometry recognized as XYZ



 Using masses of most abundant isotopes

 **********************************************************************************************************************************
 SETTING BASIS          =    6-311G(D,P)


 Recomputing integrals since basis changed


 Using spherical harmonics

 Library entry O      S 6-311G               selected for orbital group  1
 Library entry O      P 6-311G               selected for orbital group  1
 Library entry O      D 6-311G*              selected for orbital group  1
 Library entry H      S 6-311G               selected for orbital group  2
 Library entry H      P 6-311G**             selected for orbital group  2
 Library entry P      S 6-311G               selected for orbital group  7
 Library entry P      P 6-311G               selected for orbital group  7
 Library entry P      D 6-311G*              selected for orbital group  7


 PROGRAM * SEWARD (Integral evaluation for generally contracted gaussian basis sets)     Author: Roland Lindh, 1990

 Geometry written to block  1 of record 700

 Orientation using atomic masses  
 Molecule type: Asymmetric top
 Rotational constants:       3.5917975      3.7835714      3.8328531 GHz

 Point group  C1  



 ATOMIC COORDINATES

 NR  ATOM    CHARGE       X              Y              Z

   1  O       8.00    0.919261902    2.813865551    1.255218323
   2  H       1.00   -0.016633003    4.343261143    1.531158910
   3  O       8.00    1.296120658   -0.353153250   -2.948792112
   4  H       1.00   -0.026376342   -0.423403390   -4.188614667
   5  O       8.00   -3.221706818   -0.098225657   -0.234020358
   6  O       8.00    1.009208333   -2.423135833    1.896678740
   7  H       1.00   -0.024932506   -2.491324746    3.385636881
   8  P      15.00    0.000721352   -0.015162285   -0.007728800

 Bond lengths in Bohr (Angstrom)

 1-2  1.814137083  1-8  3.231431676  3-4  1.814137085  3-8  3.231431673  5-8  3.231431679
     ( 0.960000002)     ( 1.710000001)     ( 0.960000003)     ( 1.710000000)     ( 1.710000003)

 6-7  1.814137081  6-8  3.231431676
     ( 0.960000001)     ( 1.710000001)

 Bond angles

  1-8-3  109.47121840   1-8-5  109.47120265   1-8-6  109.47125028   2-1-8  130.60689955

  3-8-5  109.47123144   3-8-6  109.47121840   4-3-8  109.50120516   5-8-6  109.47120265

  7-6-8  109.50000029

 NUCLEAR CHARGE:                   50
 NUMBER OF PRIMITIVE AOS:         198
 NUMBER OF SYMMETRY AOS:          193
 NUMBER OF CONTRACTIONS:          116   (  116A   )
 NUMBER OF INNER CORE ORBITALS:     1   (    1A   )
 NUMBER OF OUTER CORE ORBITALS:     8   (    8A   )
 NUMBER OF VALENCE ORBITALS:       23   (   23A   )


 NUCLEAR REPULSION ENERGY  257.18681373


 Eigenvalues of metric

         1 0.131E-01 0.182E-01 0.211E-01 0.258E-01 0.373E-01 0.415E-01 0.438E-01 0.448E-01


 Contracted 2-electron integrals neglected if value below      1.0D-11
 AO integral compression algorithm  1   Integral accuracy      1.0D-11

     73.138 MB (compressed) written to integral file ( 33.0%)

     Node minimum: 9.961 MB, node maximum: 13.631 MB


 NUMBER OF SORTED TWO-ELECTRON INTEGRALS:    3840876.     BUFFER LENGTH:  32768
 NUMBER OF SEGMENTS:   1  SEGMENT LENGTH:    3840876      RECORD LENGTH: 524288

 Memory used in sort:       4.40 MW

 SORT1 READ    27815816. AND WROTE     2732094. INTEGRALS IN      8 RECORDS. CPU TIME:     0.38 SEC, REAL TIME:     0.42 SEC
 SORT2 READ    16081257. AND WROTE    23028291. INTEGRALS IN    252 RECORDS. CPU TIME:     0.08 SEC, REAL TIME:     0.10 SEC

 Node minimum:     3835221.  Node maximum:     3840876. integrals

 OPERATOR DM      FOR CENTER  0  COORDINATES:    0.000000    0.000000    0.000000


 **********************************************************************************************************************************
 DATASETS  * FILE   NREC   LENGTH (MB)   RECORD NAMES
              1      18       29.18       500      610      700      900      950      970     1000      129      960     1100   
                                          VAR    BASINP    GEOM    SYMINP    ZMAT    AOBASIS   BASIS     P2S    ABASIS      S 
                                         1400     1410     1200     1210     1080     1600     1650     1700   
                                           T        V       H0       H01     AOSYM     SMH    MOLCAS    OPER   

 PROGRAMS   *        TOTAL       INT
 CPU TIMES  *         1.52      1.38
 REAL TIME  *         1.76 SEC
 DISK USED  *        29.58 MB (local),      423.50 MB (total)
 GA USED    *         0.00 MB       (max)       0.00 MB       (current)
 **********************************************************************************************************************************


 Program * Restricted Hartree-Fock

 Orbital guess generated from atomic densities.

 Initial occupancy:  25

 NELEC=   50   SYM=1   MS2= 0   THRE=1.0D-08   THRD=1.0D-06   THRG=1.0D-06  HFMA2=F  DIIS_START=2   DIIS_MAX=10   DIIS_INCORE=F

 Level shifts:    0.00 (CLOSED)    0.00 (OPEN)    0.30 (GAP_MIN)

 ITER           ETOT              DE          GRAD        DDIFF     DIIS  NEXP   TIME(IT)  TIME(TOT)  DIAG
   1     -641.80995991    -641.80995991     0.00D+00     0.59D-01     0     0       0.29      0.71    start
   2     -641.90094519      -0.09098528     0.10D-01     0.12D-01     1     0       0.55      1.26    diag
   3     -642.01525417      -0.11430899     0.83D-02     0.54D-02     2     0       0.52      1.78    diag
   4     -642.01772792      -0.00247375     0.11D-02     0.84D-03     3     0       0.46      2.24    diag
   5     -642.01832670      -0.00059878     0.48D-03     0.38D-03     4     0       0.47      2.71    diag
   6     -642.01842287      -0.00009617     0.12D-03     0.19D-03     5     0       0.55      3.26    diag
   7     -642.01844169      -0.00001882     0.44D-04     0.11D-03     6     0       0.51      3.77    diag
   8     -642.01844327      -0.00000158     0.14D-04     0.32D-04     7     0       0.47      4.24    fixocc
   9     -642.01844344      -0.00000017     0.58D-05     0.94D-05     8     0       0.50      4.74    diag
  10     -642.01844346      -0.00000002     0.19D-05     0.31D-05     9     0       0.54      5.28    diag/orth
  11     -642.01844346      -0.00000000     0.65D-06     0.96D-06     9     0       0.43      5.71    diag
  12     -642.01844346      -0.00000000     0.17D-06     0.19D-06     0     0       0.54      6.25    diag

 Final occupancy:  25

 !RHF STATE 1.1 Energy               -642.018443458810
  RHF One-electron energy           -1398.433605383776
  RHF Two-electron energy             499.228348195625
  RHF Kinetic energy                  640.660061919016
  RHF Nuclear energy                  257.186813729342
  RHF Virial quotient                  -1.002120284407

 !RHF STATE 1.1 Dipole moment           0.48301911     0.55714642     0.31489293
 Dipole moment /Debye                   1.22771211     1.41612496     0.80037800

 Orbital energies:

           1.1          2.1          3.1          4.1          5.1          6.1          7.1          8.1          9.1         10.1
    -80.189449   -20.641839   -20.638112   -20.621704   -20.514861    -7.701667    -5.599362    -5.599138    -5.598021    -1.436266

          11.1         12.1         13.1         14.1         15.1         16.1         17.1         18.1         19.1         20.1
     -1.399627    -1.385865    -1.216948    -0.891491    -0.773850    -0.740978    -0.684260    -0.651434    -0.615726    -0.590357

          21.1         22.1         23.1         24.1         25.1         26.1         27.1
     -0.585261    -0.550960    -0.495411    -0.433660    -0.432184     0.084541     0.154278


 HOMO     25.1    -0.432184 =     -11.7603eV
 LUMO     26.1     0.084541 =       2.3005eV
 LUMO-HOMO         0.516725 =      14.0608eV

 Orbitals saved in record  2100.2


 **********************************************************************************************************************************
 DATASETS  * FILE   NREC   LENGTH (MB)   RECORD NAMES
              1      18       29.18       500      610      700      900      950      970     1000      129      960     1100   
                                          VAR    BASINP    GEOM    SYMINP    ZMAT    AOBASIS   BASIS     P2S    ABASIS      S 
                                         1400     1410     1200     1210     1080     1600     1650     1700   
                                           T        V       H0       H01     AOSYM     SMH    MOLCAS    OPER   

              2       4        0.68       700     1000      520     2100   
                                         GEOM     BASIS   MCVARS     RHF  

 PROGRAMS   *        TOTAL    HF-SCF       INT
 CPU TIMES  *         7.83      6.30      1.38
 REAL TIME  *         4.50 SEC
 DISK USED  *        30.85 MB (local),      431.13 MB (total)
 GA USED    *         0.00 MB       (max)       0.00 MB       (current)
 **********************************************************************************************************************************


 PROGRAM * OPT (Geometry optimization)     Authors: F. Eckert and H.-J. Werner


 BFGS update of hessian

 *** Long output written to logfile /home/zwa/Overlap_Integral_Project/overlap_integral_gaussian/molpro_files/H3PO4/H3PO4.log ***


 Geometry optimization using default procedure for command HF-SCF

 Geometry written to block  1 of record 700

 Making model hessian for cartesian coordinates

 Entering Rational Function Geometry Optimization

 ITER.   ENERGY(OLD)    ENERGY(NEW)      DE          GRADMAX     GRADNORM    GRADRMS     STEPMAX     STEPLEN     STEPRMS   CPU-time
   1  -642.01844346  -642.07320503    -0.05476157  0.17161003  0.27073497  0.01504083  0.21649691  0.30000000  0.10606602     24.03
   2  -642.07320503  -642.12176711    -0.04856208  0.15942796  0.22464263  0.01248015  0.22359573  0.30000000  0.10606602     49.15
   3  -642.12176711  -642.13407018    -0.01230307  0.08998006  0.11070932  0.00615052  0.19916959  0.30000000  0.10606602     74.44
   4  -642.13407018  -642.13839639    -0.00432621  0.11313776  0.11848054  0.00658225  0.05779697  0.11872410  0.04197531    100.69
   5  -642.13839639  -642.13931760    -0.00092122  0.02667994  0.03002516  0.00166806  0.05324281  0.11356056  0.04014972    125.51
   6  -642.13931760  -642.13954152    -0.00022392  0.00388292  0.00796593  0.00044255  0.03625653  0.06769231  0.02393285    150.66
   7  -642.13954152  -642.13971721    -0.00017569  0.00555018  0.00795010  0.00044167  0.05168795  0.08742214  0.03090840    175.10
   8  -642.13971721  -642.13983319    -0.00011598  0.00742533  0.00916266  0.00050904  0.04616109  0.07129312  0.02520592    200.68
   9  -642.13983319  -642.13998083    -0.00014764  0.00434720  0.00681056  0.00037836  0.07233414  0.10698541  0.03782506    226.63
  10  -642.13998083  -642.14012018    -0.00013936  0.00409567  0.00821992  0.00045666  0.06182017  0.09275641  0.03279434    252.39
  11  -642.14012018  -642.14025012    -0.00012993  0.00789431  0.01048365  0.00058242  0.05838979  0.09112209  0.03221652    277.51
  12  -642.14025012  -642.14031227    -0.00006216  0.00640268  0.00813483  0.00045193  0.04295849  0.07290851  0.02577705    303.44
  13  -642.14031227  -642.14030994     0.00000233  0.00269052  0.00464859  0.00025826  0.02230276  0.03634457  0.01284975    328.83
  14  -642.14030994  -642.14035552    -0.00004558  0.00537355  0.00827307  0.00045961  0.02762844  0.04745506  0.01677790    353.63
  15  -642.14035552  -642.14037222    -0.00001669  0.00240146  0.00344398  0.00019133  0.01375973  0.01783276  0.00630483    378.18
  16  -642.14037222  -642.14041568    -0.00004346  0.00149024  0.00224964  0.00012498  0.08286905  0.09499924  0.03358730    403.54
  17  -642.14041568  -642.14044250    -0.00002682  0.00335483  0.00421372  0.00023410  0.06394419  0.07440111  0.02630476    429.11
  18  -642.14044250  -642.14047204    -0.00002955  0.00311869  0.00457776  0.00025432  0.06515831  0.07551770  0.02669954    453.36
  19  -642.14047204  -642.14048973    -0.00001769  0.00236061  0.00350663  0.00019481  0.03752841  0.04999603  0.01767627    478.36
  20  -642.14048973  -642.14048879     0.00000095  0.00059594  0.00090685  0.00005038  0.05290692  0.06973796  0.02465609    503.71
  21  -642.14048879  -642.14049425    -0.00000547  0.00281574  0.00373107  0.00020728  0.02520075  0.03234549  0.01143586    528.54
  22  -642.14049425  -642.14049475    -0.00000049  0.00027076  0.00040975  0.00002276  0.00745278  0.00849003  0.00300168    554.36

 END OF GEOMETRY OPTIMIZATION.

 Geometry written to block  1 of record 700

 Recomputing wavefunction for reoriented structure

 Current geometry (xyz format, in Angstrom)

    8
 HF-SCF000/6-311G(D,P)  ENERGY=-642.14049475
 O          0.5100205250        1.3096736312        0.6034341093
 H          0.0473596286        2.0999551449        0.3767811267
 O          0.6649151674       -0.1455905646       -1.3698155368
 H          0.2448928975       -0.7128185788       -1.9958510495
 O         -1.5418954884       -0.0311046760       -0.0993081595
 O          0.5414432914       -1.1301549103        0.8771311255
 H          0.0332451420       -1.3689302571        1.6352716286
 P         -0.1006946684       -0.0020504481       -0.0064356043

 **********************************************************************************************************************************


 **********************************************************************************************************************************
 DATASETS  * FILE   NREC   LENGTH (MB)   RECORD NAMES
              1      18       29.18       500      610      700      900      950      970     1000      129      960     1100   
                                          VAR    BASINP    GEOM    SYMINP    ZMAT    AOBASIS   BASIS     P2S    ABASIS      S 
                                         1400     1410     1200     1210     1080     1600     1650     1700   
                                           T        V       H0       H01     AOSYM     SMH    MOLCAS    OPER   

              2       4        0.68       700     1000      520     2100   
                                         GEOM     BASIS   MCVARS     RHF  

 PROGRAMS   *        TOTAL      OPTG    HF-SCF       INT
 CPU TIMES  *       569.56    561.73      6.30      1.38
 REAL TIME  *       256.15 SEC
 DISK USED  *        30.85 MB (local),      466.77 MB (total)
 SF USED    *         0.08 MB
 GA USED    *         0.00 MB       (max)       0.00 MB       (current)
 **********************************************************************************************************************************


 PROGRAM * HESSIAN

 PROGRAM * MCKINLEY (Hessian of the energy)     Author: A. Bernhardsson, R. Lindh

 Orbitals from record         2100.2

 Number of closed-shell orbitals: 25 ( 25 )
 Number of occupied orbitals:     25 ( 25 )

 Number of electrons= 50     Singlet     Space symmetry=1      Wavefunction type: CLOSED          


 McKinley needed    393.59 seconds of CPU time

 Entering CPHF calculation

 CPHF needed 207 iterations for 24 perturbations.  Total CPU time:   85.32 sec


 HF-SCF hessian saved to record  5300.2

 PROGRAM * FREQUENCIES (Calculation of harmonic vibrational spectra for HF-SCF)


 Permanent Dipole Moment [debye]
   1-  3    0.000000    0.000000    0.000000

 Dipole Moment Norm    0.0000000 [debye]

 Dipole Moment Derivatives [debye/ang]
              1             2             3             4             5             6             7             8
    1    0.00000000    0.00000000    0.00000000    0.00000000    0.00000000    0.00000000    0.00000000    0.00000000
    2    0.00000000    0.00000000    0.00000000    0.00000000    0.00000000    0.00000000    0.00000000    0.00000000
    3    0.00000000    0.00000000    0.00000000    0.00000000    0.00000000    0.00000000    0.00000000    0.00000000
              9            10            11            12            13            14            15            16
    1    0.00000000    0.00000000    0.00000000    0.00000000    0.00000000    0.00000000    0.00000000    0.00000000
    2    0.00000000    0.00000000    0.00000000    0.00000000    0.00000000    0.00000000    0.00000000    0.00000000
    3    0.00000000    0.00000000    0.00000000    0.00000000    0.00000000    0.00000000    0.00000000    0.00000000
             17            18            19            20            21            22            23            24
    1    0.00000000    0.00000000    0.00000000    0.00000000    0.00000000    0.00000000    0.00000000    0.00000000
    2    0.00000000    0.00000000    0.00000000    0.00000000    0.00000000    0.00000000    0.00000000    0.00000000
    3    0.00000000    0.00000000    0.00000000    0.00000000    0.00000000    0.00000000    0.00000000    0.00000000

 Projecting out rotations and translations

 Force Constants (Second Derivatives of the Energy) in [a.u.]
                             OX1         OY1         OZ1         HX2         HY2     
           OX1           0.2883740
           OY1          -0.1405263   0.7618279
           OZ1           0.1410191  -0.0002472   0.1582693
           HX2          -0.1650786   0.2598371  -0.0802344   0.1573937
           HY2           0.2249404  -0.4332189   0.1031583  -0.2387967   0.4605218
           HZ2          -0.0833134   0.1255472  -0.0470080   0.0798349  -0.1088617
           OX3           0.0140038  -0.0066550  -0.0092479  -0.0014571  -0.0014156
           OY3           0.0073717  -0.0113678  -0.0331876  -0.0009763   0.0018904
           OZ3           0.0069863  -0.0240225  -0.0247232  -0.0004837   0.0025390
           HX4          -0.0007962   0.0029846   0.0053870   0.0004317  -0.0000027
           HY4           0.0002973   0.0010759  -0.0022837  -0.0002386  -0.0000278
           HZ4           0.0017990  -0.0000011   0.0008436  -0.0000289  -0.0006248
           OX5          -0.0182616  -0.0130965  -0.0076089  -0.0022904   0.0036301
           OY5          -0.0376821  -0.0012294  -0.0098753   0.0033918   0.0067620
           OZ5          -0.0186664  -0.0098518   0.0129488   0.0003696   0.0013279
           OX6           0.0133166  -0.0050149   0.0020779   0.0000247  -0.0016415
           OY6           0.0152166  -0.0457853   0.0147921  -0.0061771  -0.0006984
           OZ6          -0.0011173   0.0034686   0.0100462  -0.0002858  -0.0008163
           HX7          -0.0016238   0.0012681  -0.0005570   0.0004350   0.0002292
           HY7           0.0018479  -0.0012982  -0.0014412   0.0000323  -0.0007963
           HZ7          -0.0003367  -0.0044531  -0.0005547  -0.0000528   0.0001838
           PX8          -0.1299342  -0.0987972  -0.0508360   0.0105410   0.0130568
           PY8          -0.0714656  -0.2700041  -0.0709154  -0.0170726  -0.0344328
           PZ8          -0.0463707  -0.0904401  -0.1098220   0.0008811   0.0030939
                             HZ2         OX3         OY3         OZ3         HX4     
           HZ2           0.0466028
           OX3          -0.0012231   0.2953339
           OY3          -0.0003701   0.1622880   0.2887952
           OZ3          -0.0038858   0.0270326   0.2767712   0.6237890
           HX4           0.0001520  -0.1423423  -0.1763512  -0.1850410   0.1351730
           HY4           0.0000225  -0.1593871  -0.2228268  -0.2467339   0.1636771
           HZ4          -0.0007194  -0.1521281  -0.2275350  -0.2797726   0.1631434
           OX5           0.0005927  -0.0245345   0.0011225   0.0130876  -0.0015839
           OY5           0.0006467   0.0037321   0.0179061  -0.0012324  -0.0016482
           OZ5          -0.0026340   0.0399076  -0.0021594   0.0000174  -0.0037907
           OX6          -0.0009721   0.0130595  -0.0076720   0.0166117  -0.0017708
           OY6           0.0008634   0.0003979   0.0035598   0.0151164  -0.0000673
           OZ6           0.0019914  -0.0034214   0.0240559  -0.0387645   0.0008712
           HX7          -0.0001152   0.0000672   0.0030291  -0.0052272   0.0004111
           HY7          -0.0005179   0.0015290   0.0017471  -0.0000380  -0.0000251
           HZ7           0.0000254  -0.0010936   0.0021300  -0.0005824   0.0003171
           PX8           0.0050442  -0.1541307   0.0111883   0.1270337   0.0104773
           PY8          -0.0173301  -0.0004894  -0.0797039  -0.0223998   0.0114328
           PZ8           0.0056276   0.1001739  -0.0397051  -0.2760777   0.0189610
                             HY4         HZ4         OX5         OY5         OZ5     
           HY4           0.2249425
           HZ4           0.2458974   0.3043043
           OX5          -0.0016937  -0.0041800   0.7854580
           OY5          -0.0011543   0.0031496   0.0145195   0.0641584
           OZ5           0.0038287   0.0045731   0.0464122   0.0009621   0.0669012
           OX6          -0.0008001   0.0015391  -0.0194763   0.0321375  -0.0265382
           OY6          -0.0033558   0.0004141   0.0104052   0.0048310   0.0099129
           OZ6           0.0034069   0.0015801  -0.0108451   0.0129325   0.0080938
           HX7           0.0000910   0.0000360  -0.0023712  -0.0018738   0.0026178
           HY7          -0.0003179   0.0007807  -0.0022318   0.0001812  -0.0041791
           HZ7           0.0001302  -0.0004330   0.0027941  -0.0048326   0.0040131
           PX8          -0.0019460  -0.0101805  -0.7169400  -0.0125768  -0.0403119
           PY8           0.0016642  -0.0220808  -0.0126554  -0.0914550   0.0001587
           PZ8          -0.0042681  -0.0303761  -0.0402526  -0.0017507  -0.0939133
                             OX6         OY6         OZ6         HX7         HY7     
           OX6           0.3278182
           OY6          -0.0300854   0.3005831
           OZ6          -0.1922355  -0.2801290   0.5797329
           HX7          -0.1969606  -0.0816993   0.2752385   0.1887036
           HY7          -0.0599566  -0.0543312   0.1171567   0.0702651   0.0655579
           HZ7           0.2446968   0.1352776  -0.3938022  -0.2565801  -0.1407077
           PX8          -0.1360114   0.0920095  -0.0682045   0.0113386  -0.0114608
           PY8           0.0730331  -0.2048031   0.1199248   0.0086907  -0.0107425
           PZ8          -0.0451797   0.1037525  -0.1688777  -0.0154128   0.0289466
                             HZ7         PX8         PY8         PZ8     
           HZ7           0.4101928
           PX8           0.0102552   1.1046593
           PY8           0.0122717   0.0085262   0.6894772
           PZ8          -0.0188590   0.0271998   0.0003710   0.6922981


 Atomic Masses
   1-  8   15.994910    1.007825   15.994910    1.007825   15.994910   15.994910    1.007825   30.973760

 Mass weighted Second Derivative Matrix
                             OX1         OY1         OZ1         HX2         HY2     
           OX1           0.0180291
           OY1          -0.0087857   0.0476294
           OZ1           0.0088165  -0.0000155   0.0098950
           HX2          -0.0411157   0.0647169  -0.0199837   0.1561716
           HY2           0.0560253  -0.1079006   0.0256934  -0.2369426   0.4569462
           HZ2          -0.0207506   0.0312697  -0.0117081   0.0792150  -0.1080165
           OX3           0.0008755  -0.0004161  -0.0005782  -0.0003629  -0.0003526
           OY3           0.0004609  -0.0007107  -0.0020749  -0.0002432   0.0004708
           OZ3           0.0004368  -0.0015019  -0.0015457  -0.0001205   0.0006324
           HX4          -0.0001983   0.0007434   0.0013417   0.0004283  -0.0000026
           HY4           0.0000741   0.0002680  -0.0005688  -0.0002367  -0.0000276
           HZ4           0.0004481  -0.0000003   0.0002101  -0.0000287  -0.0006200
           OX5          -0.0011417  -0.0008188  -0.0004757  -0.0005705   0.0009041
           OY5          -0.0023559  -0.0000769  -0.0006174   0.0008448   0.0016842
           OZ5          -0.0011670  -0.0006159   0.0008096   0.0000921   0.0003307
           OX6           0.0008326  -0.0003135   0.0001299   0.0000061  -0.0004089
           OY6           0.0009513  -0.0028625   0.0009248  -0.0015385  -0.0001740
           OZ6          -0.0000699   0.0002169   0.0006281  -0.0000712  -0.0002033
           HX7          -0.0004044   0.0003158  -0.0001387   0.0004317   0.0002274
           HY7           0.0004603  -0.0003233  -0.0003590   0.0000321  -0.0007902
           HZ7          -0.0000838  -0.0011091  -0.0001382  -0.0000523   0.0001823
           PX8          -0.0058376  -0.0044387  -0.0022839   0.0018866   0.0023369
           PY8          -0.0032108  -0.0121306  -0.0031861  -0.0030557  -0.0061629
           PZ8          -0.0020833  -0.0040632  -0.0049340   0.0001577   0.0005538
                             HZ2         OX3         OY3         OZ3         HX4     
           HZ2           0.0462410
           OX3          -0.0003046   0.0184642
           OY3          -0.0000922   0.0101462   0.0180554
           OZ3          -0.0009678   0.0016901   0.0173037   0.0389992
           HX4           0.0001508  -0.0354528  -0.0439233  -0.0460877   0.1341235
           HY4           0.0000223  -0.0396981  -0.0554988  -0.0614533   0.1624063
           HZ4          -0.0007138  -0.0378901  -0.0566715  -0.0696822   0.1618767
           OX5           0.0001476  -0.0015339   0.0000702   0.0008182  -0.0003945
           OY5           0.0001611   0.0002333   0.0011195  -0.0000770  -0.0004105
           OZ5          -0.0006560   0.0024950  -0.0001350   0.0000011  -0.0009441
           OX6          -0.0002421   0.0008165  -0.0004797   0.0010386  -0.0004410
           OY6           0.0002151   0.0000249   0.0002226   0.0009451  -0.0000168
           OZ6           0.0004960  -0.0002139   0.0015040  -0.0024236   0.0002170
           HX7          -0.0001143   0.0000167   0.0007544  -0.0013019   0.0004080
           HY7          -0.0005139   0.0003808   0.0004351  -0.0000095  -0.0000250
           HZ7           0.0000252  -0.0002724   0.0005305  -0.0001451   0.0003146
           PX8           0.0009028  -0.0069247   0.0005027   0.0057073   0.0018753
           PY8          -0.0031018  -0.0000220  -0.0035809  -0.0010064   0.0020463
           PZ8           0.0010072   0.0045006  -0.0017838  -0.0124035   0.0033937
                             HY4         HZ4         OX5         OY5         OZ5     
           HY4           0.2231960
           HZ4           0.2439882   0.3019416
           OX5          -0.0004218  -0.0010411   0.0491067
           OY5          -0.0002875   0.0007845   0.0009078   0.0040112
           OZ5           0.0009536   0.0011390   0.0029017   0.0000602   0.0041827
           OX6          -0.0001993   0.0003833  -0.0012177   0.0020092  -0.0016592
           OY6          -0.0008358   0.0001031   0.0006505   0.0003020   0.0006198
           OZ6           0.0008485   0.0003936  -0.0006780   0.0008085   0.0005060
           HX7           0.0000903   0.0000358  -0.0005906  -0.0004667   0.0006520
           HY7          -0.0003155   0.0007746  -0.0005559   0.0000451  -0.0010409
           HZ7           0.0001292  -0.0004296   0.0006959  -0.0012036   0.0009995
           PX8          -0.0003483  -0.0018221  -0.0322103  -0.0005650  -0.0018111
           PY8           0.0002979  -0.0039521  -0.0005686  -0.0041088   0.0000071
           PZ8          -0.0007639  -0.0054368  -0.0018084  -0.0000787  -0.0042193
                             OX6         OY6         OZ6         HX7         HY7     
           OX6           0.0204952
           OY6          -0.0018809   0.0187924
           OZ6          -0.0120185  -0.0175136   0.0362448
           HX7          -0.0490564  -0.0203486   0.0685529   0.1872385
           HY7          -0.0149332  -0.0135321   0.0291799   0.0697196   0.0650489
           HZ7           0.0609459   0.0336932  -0.0980832  -0.2545880  -0.1396152
           PX8          -0.0061107   0.0041338  -0.0030643   0.0020294  -0.0020513
           PY8           0.0032812  -0.0092013   0.0053879   0.0015555  -0.0019227
           PZ8          -0.0020298   0.0046613  -0.0075872  -0.0027586   0.0051809
                             HZ7         PX8         PY8         PZ8     
           HZ7           0.4070080
           PX8           0.0018355   0.0356644
           PY8           0.0021964   0.0002753   0.0222600
           PZ8          -0.0033754   0.0008782   0.0000120   0.0223511


 Mass Weighted 2nd Derivative Matrix Eigenvalues
   1- 10    0.000000    0.000000    0.000000    0.000000    0.000000    0.000000    0.001310    0.001391    0.003640    0.006358
  11- 20    0.006391    0.009621    0.009908    0.009928    0.032587    0.038405    0.038428    0.045529    0.046832    0.046932
  21- 24    0.076981    0.655273    0.655425    0.657158

 Mass Weighted 2nd Derivative Matrix Eigenvectors
              1             2             3             4             5             6             7             8
    1    0.00195962   -0.03249138    0.00738797   -0.00395469    0.07421804    0.67868512   -0.14735530    0.03245801
    2    0.09002493   -0.00581881   -0.06819258    0.02938749    0.45087703   -0.19283884    0.00674553   -0.12691903
    3   -0.10206031    0.52684074    0.05700182   -0.34113195   -0.20527075   -0.02089527    0.11857612    0.23670330
    4   -0.00896480   -0.02051258   -0.04624627   -0.03176848    0.00366355    0.22036045   -0.32310220    0.36876222
    5    0.00162745   -0.00259776   -0.02830193   -0.01674597    0.10152655   -0.01437540   -0.06941210    0.06137584
    6   -0.07943306    0.15350404    0.07349774   -0.10691758   -0.06159940    0.01134712    0.36465642   -0.35072524
    7    0.07117992    0.42955410   -0.39669455    0.29841989   -0.04158763    0.05248772    0.03268112   -0.14093528
    8   -0.43796682    0.40166209    0.17828566   -0.11989574    0.24915627   -0.19700549   -0.28364395   -0.04543545
    9    0.29276522    0.26259440   -0.15649432   -0.20730056   -0.06559287   -0.06697714    0.04301871   -0.06916556
   10    0.02464215    0.14745155   -0.12773939    0.10334167   -0.01838008   -0.04419462   -0.14523977   -0.41835873
   11   -0.15759674    0.12069145    0.04652023   -0.06133721    0.04078000   -0.01643534    0.12227711    0.48350030
   12    0.11212638    0.02132757   -0.02198920   -0.04280574    0.00858087   -0.00823630   -0.06158126   -0.20940143
   13    0.06580613    0.21994094   -0.01177364    0.23889478    0.07276910    0.22276681    0.00186499    0.01902486
   14   -0.19841923   -0.08583442   -0.29998429   -0.37003538    0.27709556    0.40233401    0.27295949   -0.11187144
   15    0.26184548   -0.05756516    0.55519200   -0.28815265    0.13052168    0.17478280   -0.11271773   -0.27273160
   16    0.11824173    0.18567481    0.46408712    0.38821398    0.21808672    0.01750293    0.12164347    0.08596614
   17    0.16578050   -0.05668497   -0.09435583    0.05878791    0.48141613   -0.20724252   -0.05819644    0.17137819
   18    0.55990057    0.04835505   -0.22865925   -0.12407090    0.05044782   -0.07338524   -0.16014447    0.16589906
   19    0.03254897    0.02344629    0.18584064    0.10119932    0.07560186    0.00807114    0.41409199    0.07993334
   20    0.08716752   -0.06556123   -0.06453756    0.01064583    0.13484873   -0.01972692    0.41239215    0.11475548
   21    0.15681398   -0.01955455   -0.02377868   -0.02992391    0.03105619   -0.00578464    0.35099390    0.10315362
   22    0.08965572    0.28166598    0.01840543    0.32165424    0.11150351    0.33546858    0.00343736   -0.00296698
   23   -0.14548109    0.06923504   -0.12788412   -0.17391548    0.49633042   -0.01062566   -0.03927331   -0.03789270
   24    0.35327850    0.23947573    0.14214035   -0.34030132   -0.01191531    0.02641937   -0.03802497    0.03880673
              9            10            11            12            13            14            15            16
    1    0.03501085    0.37220147   -0.06780398   -0.30770620   -0.12114244   -0.26690559   -0.16375603    0.24352902
    2   -0.13191699   -0.21924798   -0.11306981    0.24192749   -0.10065872   -0.28665257   -0.44125742    0.22529566
    3    0.10449618    0.01429269    0.42329177    0.16087271    0.34707876   -0.04169528   -0.18327582    0.19930389
    4    0.37449087   -0.09057857    0.04380830   -0.05699444    0.11445714   -0.07895242   -0.06834256   -0.28613070
    5    0.06841978   -0.04654305    0.01000732    0.00030888    0.04759485   -0.11248860   -0.13962750   -0.21345006
    6   -0.36532824    0.41426895    0.11632367   -0.22547597    0.05071302   -0.12408789   -0.07699037   -0.22792146
    7    0.03315308   -0.21661075   -0.28290362   -0.28326825    0.28572974    0.06675092   -0.21385231    0.06655502
    8    0.16452283    0.31202660   -0.30903867    0.05142339   -0.27174122    0.24844048    0.06550950   -0.02795702
    9    0.06522009   -0.21754528   -0.13379535   -0.31671313   -0.17712531   -0.19329125    0.45284643   -0.20774530
   10    0.34951830    0.06681735    0.02400552   -0.07562523    0.02379571    0.15473248   -0.08624990    0.10114346
   11   -0.37276669   -0.10929169   -0.38791429   -0.19340092    0.02286512    0.04273865    0.00528179   -0.01122232
   12    0.16299026    0.03314195    0.18201334    0.10555517   -0.09706879   -0.12213585    0.15070471   -0.10384368
   13   -0.12115350    0.01814738    0.01573929    0.33798928   -0.01514334   -0.02055727    0.31119794   -0.00080358
   14   -0.00362896   -0.30043717    0.14808908    0.01528128   -0.16461130    0.50253204    0.00622035   -0.02393169
   15   -0.00624360   -0.14941098   -0.30055448    0.00211248    0.50161432    0.16306609    0.02028276   -0.00938693
   16    0.04548147   -0.17568669    0.33555101   -0.28529161   -0.20511556    0.19038560   -0.17283477   -0.30050706
   17   -0.02739478    0.20595160    0.26791908   -0.30750365    0.24772036    0.13632014    0.36552894    0.42676105
   18   -0.16510305    0.35734962    0.00731990    0.09486901   -0.07427742    0.35921648   -0.30540987   -0.25044081
   19    0.33382574   -0.03041119   -0.05832045   -0.07106726   -0.14099100   -0.05920644   -0.07258212    0.20460734
   20    0.32224692    0.25824819   -0.24280204    0.17808070    0.17533377   -0.02305357    0.12976961   -0.18190942
   21    0.27805082    0.16491719   -0.19278286    0.10866832   -0.04280271    0.00240393   -0.08845889    0.02155522
   22   -0.18542003    0.01117206   -0.00213118    0.42355334    0.04050015    0.01880325    0.21290267   -0.00984379
   23   -0.00436578   -0.01724701    0.11634911    0.00189683    0.16355064   -0.41488647    0.00369891   -0.35794696
   24   -0.01248570   -0.11382103   -0.01635389    0.04432644   -0.41313682   -0.16247318    0.01383874    0.24873779
             17            18            19            20            21            22            23            24
    1    0.18825197    0.19326605    0.04114386   -0.08839652    0.06212523    0.01274857    0.08683210    0.07103114
    2    0.35836195   -0.00433612   -0.27807918   -0.05563501    0.05413464   -0.02315481   -0.15885557   -0.13265065
    3    0.20904679    0.10041144    0.01443693   -0.10016568    0.03539288    0.00703543    0.04102717    0.03220202
    4   -0.05882382   -0.31802839   -0.33244727    0.12614630   -0.04552423   -0.05152053   -0.35658444   -0.29153331
    5   -0.00101752   -0.29108909   -0.34282296    0.11158795   -0.03029206    0.09059298    0.63335218    0.51760346
    6   -0.07016209   -0.29390785   -0.29885267    0.13271978   -0.02836681   -0.02466363   -0.17074971   -0.13888129
    7   -0.35573346    0.20082011   -0.10575957    0.03043447    0.06947572   -0.07845830   -0.03316373    0.05438184
    8   -0.04141332    0.07635164   -0.12535365   -0.10083182    0.00206719   -0.11154442   -0.04645258    0.07770076
    9    0.42398459   -0.02929412   -0.04188264   -0.24913076   -0.05680066   -0.12821582   -0.05517658    0.09243126
   10    0.30670000   -0.35518105    0.33198890    0.26369955   -0.05153517    0.32341704    0.13786950   -0.22562996
   11    0.09621785   -0.09445443    0.08933378    0.03874686   -0.00802281    0.44812971    0.19163088   -0.31218651
   12   -0.23785380    0.34784735   -0.34343896   -0.28046365    0.03643701    0.50815020    0.21758922   -0.35501076
   13    0.00150257   -0.25236443    0.01006601    0.00466781    0.73755721   -0.00014895   -0.00023757    0.00279241
   14    0.00948827   -0.00711074   -0.08529097    0.01852460    0.01490709   -0.00045765    0.00132392    0.00012975
   15   -0.02418917   -0.01553728   -0.01810044   -0.08577029    0.04754565    0.00132211    0.00044344    0.00023889
   16    0.12209637    0.20720380    0.05441725    0.09808655    0.06449698    0.07720505   -0.06817914    0.06923672
   17   -0.05594104   -0.07922876   -0.15574989    0.05678400   -0.05224203    0.04210451   -0.03610078    0.03989221
   18   -0.00964858   -0.02547448    0.12860218   -0.20875933    0.03430731   -0.12175232    0.10792028   -0.11102276
   19   -0.22881055   -0.33365053    0.06732104   -0.38580874   -0.04808740   -0.31751671    0.27857546   -0.28433607
   20    0.21123712    0.36129210   -0.07110051    0.43661528    0.03606632   -0.16201864    0.14162422   -0.14546750
   21   -0.09691883   -0.12824250    0.05612551   -0.17741984   -0.01626657    0.48936583   -0.42831598    0.43755456
   22    0.02809537   -0.06912136   -0.01196570   -0.03291648   -0.64475295    0.00007548   -0.00019950    0.00269276
   23   -0.24965744    0.01466792    0.52167643   -0.04755461   -0.01315236   -0.00108253   -0.00183177   -0.00008649
   24   -0.35754387   -0.00823120    0.04604941    0.52131458   -0.04195810   -0.00186197    0.00110842    0.00020999

   Low Vibration      Wavenumber
        Nr             [1/cm] 
        1                0.00
        2                0.00
        3                0.00
        4                0.00
        5                0.00
        6                0.00

     Vibration        Wavenumber
        Nr             [1/cm] 
        1              186.09
        2              191.72
        3              310.15
        4              409.88
        5              410.95
        6              504.22
        7              511.67
        8              512.19
        9              927.95
       10             1007.40
       11             1007.69
       12             1096.85
       13             1112.43
       14             1113.62
       15             1426.25
       16             4161.17
       17             4161.65
       18             4167.15

 FREQUENCIES * CALCULATION OF NORMAL MODES FOR HF-SCF


 Atomic Coordinates

  Nr  Atom  Charge       X              Y              Z

   1   O     8.00    0.963799110    2.474924476    1.140325201
   2   H     1.00    0.089496727    3.968340098    0.712013138
   3   O     8.00    1.256507562   -0.275126293   -2.588576206
   4   H     1.00    0.462780506   -1.347031890   -3.771611869
   5   O     8.00   -2.913760186   -0.058779319   -0.187665223
   6   O     8.00    1.023179533   -2.135683259    1.657537603
   7   H     1.00    0.062824213   -2.586903270    3.090215517
   8   P    15.00   -0.190285345   -0.003874785   -0.012161530

 Gradient norm at reference geometry: 0.40975D-03

 Normal Modes

                              1 A         2 A         3 A         4 A         5 A  
 Wavenumbers [cm-1]          186.09      191.72      310.15      409.88      410.95
 Intensities [km/mol]          0.00        0.00        0.00        0.00        0.00
 Intensities [relative]        0.00        0.00        0.00        0.00        0.00
           OX1             -0.03684     0.00812     0.00875     0.09307    -0.01695
           OY1              0.00169    -0.03173    -0.03298    -0.05482    -0.02827
           OZ1              0.02965     0.05919     0.02613     0.00357     0.10584
           HX2             -0.32185     0.36733     0.37303    -0.09023     0.04364
           HY2             -0.06914     0.06114     0.06815    -0.04636     0.00997
           HZ2              0.36324    -0.34936    -0.36391     0.41266     0.11587
           OX3              0.00817    -0.03524     0.00829    -0.05416    -0.07074
           OY3             -0.07092    -0.01136     0.04114     0.07802    -0.07727
           OZ3              0.01076    -0.01729     0.01631    -0.05439    -0.03345
           HX4             -0.14467    -0.41673     0.34816     0.06656     0.02391
           HY4              0.12180     0.48162    -0.37132    -0.10887    -0.38641
           HZ4             -0.06134    -0.20859     0.16236     0.03301     0.18131
           OX5              0.00047     0.00476    -0.03029     0.00454     0.00394
           OY5              0.06825    -0.02797    -0.00091    -0.07512     0.03703
           OZ5             -0.02818    -0.06819    -0.00156    -0.03736    -0.07515
           OX6              0.03042     0.02149     0.01137    -0.04393     0.08390
           OY6             -0.01455     0.04285    -0.00685     0.05150     0.06699
           OZ6             -0.04004     0.04148    -0.04128     0.08935     0.00183
           HX7              0.41248     0.07962     0.33253    -0.03029    -0.05809
           HY7              0.41079     0.11431     0.32099     0.25724    -0.24186
           HZ7              0.34963     0.10275     0.27697     0.16428    -0.19203
           PX8              0.00062    -0.00053    -0.03332     0.00201    -0.00038
           PY8             -0.00706    -0.00681    -0.00078    -0.00310     0.02091
           PZ8             -0.00683     0.00697    -0.00224    -0.02045    -0.00294

                              6 A         7 A         8 A         9 A        10 A  
 Wavenumbers [cm-1]          504.22      511.67      512.19      927.95     1007.40
 Intensities [km/mol]          0.00        0.00        0.00        0.00        0.00
 Intensities [relative]        0.00        0.00        0.00        0.00        0.00
           OX1             -0.07694    -0.03029    -0.06674    -0.04095     0.06089
           OY1              0.06049    -0.02517    -0.07167    -0.11033     0.05633
           OZ1              0.04022     0.08678    -0.01043    -0.04583     0.04983
           HX2             -0.05677     0.11401    -0.07865    -0.06808    -0.28502
           HY2              0.00031     0.04741    -0.11205    -0.13908    -0.21262
           HZ2             -0.22460     0.05052    -0.12361    -0.07669    -0.22703
           OX3             -0.07083     0.07144     0.01669    -0.05347     0.01664
           OY3              0.01286    -0.06795     0.06212     0.01638    -0.00699
           OZ3             -0.07919    -0.04429    -0.04833     0.11323    -0.05194
           HX4             -0.07533     0.02370     0.15413    -0.08591     0.10075
           HY4             -0.19265     0.02278     0.04257     0.00526    -0.01118
           HZ4              0.10514    -0.09669    -0.12166     0.15012    -0.10344
           OX5              0.08451    -0.00379    -0.00514     0.07781    -0.00020
           OY5              0.00382    -0.04116     0.12565     0.00156    -0.00598
           OZ5              0.00053     0.12542     0.04077     0.00507    -0.00235
           OX6             -0.07133    -0.05129     0.04760    -0.04322    -0.07514
           OY6             -0.07689     0.06194     0.03409     0.09140     0.10671
           OZ6              0.02372    -0.01857     0.08982    -0.07636    -0.06262
           HX7             -0.07079    -0.14044    -0.05898    -0.07230     0.20381
           HY7              0.17739     0.17465    -0.02296     0.12926    -0.18120
           HZ7              0.10825    -0.04264     0.00239    -0.08811     0.02147
           PX8              0.07610     0.00728     0.00338     0.03825    -0.00177
           PY8              0.00034     0.02939    -0.07455     0.00066    -0.06432
           PZ8              0.00796    -0.07423    -0.02919     0.00249     0.04469

                             11 A        12 A        13 A        14 A        15 A  
 Wavenumbers [cm-1]         1007.69     1096.85     1112.43     1113.62     1426.25
 Intensities [km/mol]          0.00        0.00        0.00        0.00        0.00
 Intensities [relative]        0.00        0.00        0.00        0.00        0.00
           OX1              0.04707     0.04832     0.01029    -0.02210     0.01553
           OY1              0.08960    -0.00108    -0.06953    -0.01391     0.01354
           OZ1              0.05227     0.02511     0.00361    -0.02505     0.00885
           HX2             -0.05860    -0.31679    -0.33115     0.12566    -0.04535
           HY2             -0.00101    -0.28996    -0.34149     0.11115    -0.03017
           HZ2             -0.06989    -0.29276    -0.29769     0.13220    -0.02826
           OX3             -0.08895     0.05021    -0.02644     0.00761     0.01737
           OY3             -0.01035     0.01909    -0.03134    -0.02521     0.00052
           OZ3              0.10601    -0.00732    -0.01047    -0.06229    -0.01420
           HX4              0.30551    -0.35380     0.33070     0.26267    -0.05133
           HY4              0.09584    -0.09409     0.08899     0.03860    -0.00799
           HZ4             -0.23693     0.34649    -0.34210    -0.27937     0.03630
           OX5              0.00038    -0.06310     0.00252     0.00117     0.18442
           OY5              0.00237    -0.00178    -0.02133     0.00463     0.00373
           OZ5             -0.00605    -0.00388    -0.00453    -0.02145     0.01189
           OX6              0.03053     0.05181     0.01361     0.02453     0.01613
           OY6             -0.01399    -0.01981    -0.03894     0.01420    -0.01306
           OZ6             -0.00241    -0.00637     0.03216    -0.05220     0.00858
           HX7             -0.22792    -0.33235     0.06706    -0.38431    -0.04790
           HY7              0.21042     0.35989    -0.07082     0.43492     0.03593
           HZ7             -0.09654    -0.12774     0.05591    -0.17673    -0.01620
           PX8              0.00505    -0.01242    -0.00215    -0.00591    -0.11585
           PY8             -0.04486     0.00264     0.09374    -0.00854    -0.00236
           PZ8             -0.06424    -0.00148     0.00827     0.09367    -0.00754

                             16 A        17 A        18 A  
 Wavenumbers [cm-1]         4161.17     4161.65     4167.15
 Intensities [km/mol]          0.00        0.00        0.00
 Intensities [relative]        0.00        0.00        0.00
           OX1              0.00319     0.02171     0.01776
           OY1             -0.00579    -0.03972    -0.03317
           OZ1              0.00176     0.01026     0.00805
           HX2             -0.05132    -0.35520    -0.29040
           HY2              0.09024     0.63089     0.51559
           HZ2             -0.02457    -0.17009    -0.13834
           OX3             -0.01962    -0.00829     0.01360
           OY3             -0.02789    -0.01161     0.01943
           OZ3             -0.03206    -0.01380     0.02311
           HX4              0.32216     0.13733    -0.22475
           HY4              0.44639     0.19089    -0.31097
           HZ4              0.50617     0.21674    -0.35363
           OX5             -0.00004    -0.00006     0.00070
           OY5             -0.00011     0.00033     0.00003
           OZ5              0.00033     0.00011     0.00006
           OX6              0.01930    -0.01705     0.01731
           OY6              0.01053    -0.00903     0.00997
           OZ6             -0.03044     0.02698    -0.02776
           HX7             -0.31628     0.27749    -0.28323
           HY7             -0.16139     0.14107    -0.14490
           HZ7              0.48746    -0.42665     0.43585
           PX8              0.00001    -0.00004     0.00048
           PY8             -0.00019    -0.00033    -0.00002
           PZ8             -0.00033     0.00020     0.00004


 Normal Modes of low/zero frequencies

                                  1           2           3           4           5
 Wavenumbers [cm-1]            0.00        0.00        0.00        0.00        0.00
 Intensities [km/mol]          0.00        0.00        0.00        0.00        0.00
 Intensities [relative]        0.00        0.00        0.00        0.00        0.00
           OX1              0.00049    -0.00812     0.00185    -0.00099     0.01856
           OY1              0.02251    -0.00145    -0.01705     0.00735     0.11274
           OZ1             -0.02552     0.13173     0.01425    -0.08530    -0.05133
           HX2             -0.00893    -0.02043    -0.04607    -0.03164     0.00365
           HY2              0.00162    -0.00259    -0.02819    -0.01668     0.10113
           HZ2             -0.07912     0.15291     0.07321    -0.10650    -0.06136
           OX3              0.01780     0.10741    -0.09919     0.07462    -0.01040
           OY3             -0.10951     0.10043     0.04458    -0.02998     0.06230
           OZ3              0.07320     0.06566    -0.03913    -0.05183    -0.01640
           HX4              0.02455     0.14688    -0.12724     0.10294    -0.01831
           HY4             -0.15698     0.12022     0.04634    -0.06110     0.04062
           HZ4              0.11169     0.02124    -0.02190    -0.04264     0.00855
           OX5              0.01645     0.05499    -0.00294     0.05973     0.01820
           OY5             -0.04961    -0.02146    -0.07501    -0.09252     0.06928
           OZ5              0.06547    -0.01439     0.13882    -0.07205     0.03264
           OX6              0.02957     0.04643     0.11604     0.09707     0.05453
           OY6              0.04145    -0.01417    -0.02359     0.01470     0.12037
           OZ6              0.14000     0.01209    -0.05717    -0.03102     0.01261
           HX7              0.03242     0.02336     0.18512     0.10081     0.07531
           HY7              0.08683    -0.06531    -0.06429     0.01060     0.13432
           HZ7              0.15620    -0.01948    -0.02369    -0.02981     0.03094
           PX8              0.01611     0.05061     0.00331     0.05780     0.02004
           PY8             -0.02614     0.01244    -0.02298    -0.03125     0.08918
           PZ8              0.06348     0.04303     0.02554    -0.06115    -0.00214

                                  6
 Wavenumbers [cm-1]            0.00
 Intensities [km/mol]          0.00
 Intensities [relative]        0.00
           OX1              0.16970
           OY1             -0.04822
           OZ1             -0.00522
           HX2              0.21950
           HY2             -0.01432
           HZ2              0.01130
           OX3              0.01312
           OY3             -0.04926
           OZ3             -0.01675
           HX4             -0.04402
           HY4             -0.01637
           HZ4             -0.00820
           OX5              0.05570
           OY5              0.10060
           OZ5              0.04370
           OX6              0.00438
           OY6             -0.05182
           OZ6             -0.01835
           HX7              0.00804
           HY7             -0.01965
           HZ7             -0.00576
           PX8              0.06028
           PY8             -0.00191
           PZ8              0.00475


 Frequencies dumped to record   5400.2

 Zero point energy:  0.05289685 [H]    11609.52 [1/CM]      138.88 [KJ/MOL]
 Frequency information read from record  5400.2


 **********************************************************************************************************************************
 DATASETS  * FILE   NREC   LENGTH (MB)   RECORD NAMES
              1      18       29.18       500      610      700      900      950      970     1000      129      960     1100   
                                          VAR    BASINP    GEOM    SYMINP    ZMAT    AOBASIS   BASIS     P2S    ABASIS      S 
                                         1400     1410     1200     1210     1080     1600     1650     1700   
                                           T        V       H0       H01     AOSYM     SMH    MOLCAS    OPER   

              2       7        0.86       700     1000      520     2100     5300     5450     5400   
                                         GEOM     BASIS   MCVARS     RHF     HESS     NMOD     FREQ   

              4       5        5.07      4100     4000     4200     4300     4400   

 PROGRAMS   *        TOTAL      FREQ      OPTG    HF-SCF       INT
 CPU TIMES  *      1048.49    478.92    561.73      6.30      1.38
 REAL TIME  *       455.33 SEC
 DISK USED  *        30.85 MB (local),      466.77 MB (total)
 SF USED    *         5.07 MB
 GA USED    *         0.00 MB       (max)       0.00 MB       (current)
 **********************************************************************************************************************************

 Dump information in style MOLDEN to h3po4.molden                                                                    

 Molecular orbitals read from record     2100.2  Type=RHF/CANONICAL  
 Occupation numbers read from record     2100.2  Type=RHF/RHF  
 Orbital energies read from record       2100.2  Type=RHF/CANONICAL  
 Redundancy group numbers read from rec  2100.2  Type=RHF/RHF  

 DUMP ORBITAL  1.1 AS ORBITAL    1  occ=    2.0000  eig=  -80.1122  GROUP=   2
 DUMP ORBITAL  2.1 AS ORBITAL    2  occ=    2.0000  eig=  -20.6057  GROUP=   2
 DUMP ORBITAL  3.1 AS ORBITAL    3  occ=    2.0000  eig=  -20.6057  GROUP=   2
 DUMP ORBITAL  4.1 AS ORBITAL    4  occ=    2.0000  eig=  -20.6057  GROUP=   2
 DUMP ORBITAL  5.1 AS ORBITAL    5  occ=    2.0000  eig=  -20.5106  GROUP=   2
 DUMP ORBITAL  6.1 AS ORBITAL    6  occ=    2.0000  eig=   -7.6380  GROUP=   2
 DUMP ORBITAL  7.1 AS ORBITAL    7  occ=    2.0000  eig=   -5.5362  GROUP=   2
 DUMP ORBITAL  8.1 AS ORBITAL    8  occ=    2.0000  eig=   -5.5361  GROUP=   2
 DUMP ORBITAL  9.1 AS ORBITAL    9  occ=    2.0000  eig=   -5.5361  GROUP=   2
 DUMP ORBITAL 10.1 AS ORBITAL   10  occ=    2.0000  eig=   -1.4853  GROUP=   2
 DUMP ORBITAL 11.1 AS ORBITAL   11  occ=    2.0000  eig=   -1.4081  GROUP=   2
 DUMP ORBITAL 12.1 AS ORBITAL   12  occ=    2.0000  eig=   -1.4080  GROUP=   2
 DUMP ORBITAL 13.1 AS ORBITAL   13  occ=    2.0000  eig=   -1.3183  GROUP=   2
 DUMP ORBITAL 14.1 AS ORBITAL   14  occ=    2.0000  eig=   -0.8990  GROUP=   2
 DUMP ORBITAL 15.1 AS ORBITAL   15  occ=    2.0000  eig=   -0.7777  GROUP=   2
 DUMP ORBITAL 16.1 AS ORBITAL   16  occ=    2.0000  eig=   -0.7770  GROUP=   2
 DUMP ORBITAL 17.1 AS ORBITAL   17  occ=    2.0000  eig=   -0.6912  GROUP=   2
 DUMP ORBITAL 18.1 AS ORBITAL   18  occ=    2.0000  eig=   -0.6449  GROUP=   2
 DUMP ORBITAL 19.1 AS ORBITAL   19  occ=    2.0000  eig=   -0.6446  GROUP=   2
 DUMP ORBITAL 20.1 AS ORBITAL   20  occ=    2.0000  eig=   -0.5879  GROUP=   2
 DUMP ORBITAL 21.1 AS ORBITAL   21  occ=    2.0000  eig=   -0.5875  GROUP=   2
 DUMP ORBITAL 22.1 AS ORBITAL   22  occ=    2.0000  eig=   -0.5651  GROUP=   2
 DUMP ORBITAL 23.1 AS ORBITAL   23  occ=    2.0000  eig=   -0.5443  GROUP=   2
 DUMP ORBITAL 24.1 AS ORBITAL   24  occ=    2.0000  eig=   -0.4753  GROUP=   2
 DUMP ORBITAL 25.1 AS ORBITAL   25  occ=    2.0000  eig=   -0.4752  GROUP=   2

 Total charge:      50.000000
 Frequency information read from record  5400.2

 **********************************************************************************************************************************

 HF/6-311G(D,P)//HF/6-311G(D,P) energy=   -642.140494748655

    OPTG(HF-SCF)          HF-SCF
   -642.14049475   -642.01844346
 **********************************************************************************************************************************
 Molpro calculation terminated
