
 Working directory              : /tmp/zwa/molpro.n6YsydbKn5/
 Global scratch directory       : /tmp/zwa/molpro.n6YsydbKn5/
 Wavefunction directory         : /home/zwa/wfu/
 Main file repository           : /tmp/zwa/molpro.n6YsydbKn5/

 id        : liedlgroup

 Nodes     nprocs
 rh2-c724     6
 GA implementation: MPI file
 GA implementation (serial work in mppx): MPI file

 Using customized tuning parameters: mindgm=1; mindgv=20; mindgc=4; mindgr=1; noblas=0; minvec=7
 default implementation of scratch files=sf  


 Variables initialized (1015), CPU time= 0.00 sec
 memory,1000,m
 orient,mass
 geometry = {
  C,                 -5.13924038 ,   0.99999999  ,  0.00000000
  H,                 -4.78258595 ,  -0.00881002  ,  0.00000000
  H,                 -4.78256754 ,   1.50439818  ,  0.87365150
  H,                 -6.20924038 ,   1.00001317  ,  0.00000000
  O,                 -4.66256546 ,   1.67410224  , -1.16759033
  H,                 -4.03197131 ,   3.20418707  , -1.55668147
 }
 
 mass,iso
 basis=6-311g(d,p)
 {hf
 start,atden}
 
 {ccsd}
 optg
 {frequencies, symm=auto,print=0,analytical}
 put,molden,methanolccsd.molden
 Commands initialized (834), CPU time= 0.00 sec, 672 directives.
 Default parameters read. Elapsed time= 0.09 sec

 Checking input...
 Passed
1


                                         ***  PROGRAM SYSTEM MOLPRO  ***
                                       Copyright, TTI GmbH Stuttgart, 2015
                                    Version 2022.2 linked Thu Sep 29 12:37:28 2022


 **********************************************************************************************************************************
 LABEL *                                                                                 
  (8 PROC) 64 bit mpp version                                                            DATE: 25-Aug-25          TIME: 11:43:00  
 **********************************************************************************************************************************

 SHA1:             51306cdc306ce2a111a2867affebcb289530e0a7
 **********************************************************************************************************************************

 Memory per process:      1000 MW
 Total memory per node:   6000 MW

 GA preallocation disabled
 GA check disabled

 Variable memory set to 1000.0 MW

 ZCENTRE=MASS


 Geometry recognized as XYZ



 Using masses of most abundant isotopes

 **********************************************************************************************************************************
 SETTING BASIS          =    6-311G(D,P)


 Recomputing integrals since basis changed


 Using spherical harmonics

 Library entry C      S 6-311G               selected for orbital group  1
 Library entry C      P 6-311G               selected for orbital group  1
 Library entry C      D 6-311G*              selected for orbital group  1
 Library entry H      S 6-311G               selected for orbital group  2
 Library entry H      P 6-311G**             selected for orbital group  2
 Library entry O      S 6-311G               selected for orbital group  3
 Library entry O      P 6-311G               selected for orbital group  3
 Library entry O      D 6-311G*              selected for orbital group  3


 PROGRAM * SEWARD (Integral evaluation for generally contracted gaussian basis sets)     Author: Roland Lindh, 1990

 Geometry written to block  1 of record 700

 Orientation using atomic masses  
 Molecule type: Asymmetric top
 Rotational constants:      20.6874951     21.6052430    122.8239524 GHz

 Point group  C1  



 ATOMIC COORDINATES

 NR  ATOM    CHARGE       X              Y              Z

   1  C       6.00   -0.000000035    0.099836165    1.443489822
   2  H       1.00    1.259749845   -1.242977841    2.279188915
   3  H       1.00    0.609257276    1.972306842    1.903023482
   4  H       1.00   -1.869006772   -0.194862219    2.156566816
   5  O       8.00    0.000000001   -0.214174341   -1.240512389
   6  H       1.00    0.000000050    1.675902415   -3.838339008

 Bond lengths in Bohr (Angstrom)

 1-2  2.022006970  1-3  2.022006947  1-4  2.022006954  1-5  2.702308359
     ( 1.070000009)     ( 1.069999996)     ( 1.070000000)     ( 1.430000001)

 Bond angles

  2-1-3  109.47120256   2-1-4  109.47123124   2-1-5  109.47120228   3-1-4  109.47121844

  3-1-5  109.47125079   4-1-5  109.47121850

 NUCLEAR CHARGE:                   18
 NUMBER OF PRIMITIVE AOS:          96
 NUMBER OF SYMMETRY AOS:           94
 NUMBER OF CONTRACTIONS:           60   (   60A   )
 NUMBER OF INNER CORE ORBITALS:     0   (    0A   )
 NUMBER OF OUTER CORE ORBITALS:     2   (    2A   )
 NUMBER OF VALENCE ORBITALS:       12   (   12A   )


 NUCLEAR REPULSION ENERGY   37.81236537


 Eigenvalues of metric

         1 0.926E-02 0.207E-01 0.209E-01 0.320E-01 0.413E-01 0.439E-01 0.528E-01 0.890E-01


 Contracted 2-electron integrals neglected if value below      1.0D-11
 AO integral compression algorithm  1   Integral accuracy      1.0D-11

     8.651 MB (compressed) written to integral file ( 52.3%)

     Node minimum: 1.311 MB, node maximum: 1.573 MB


 NUMBER OF SORTED TWO-ELECTRON INTEGRALS:     279990.     BUFFER LENGTH:  32768
 NUMBER OF SEGMENTS:   1  SEGMENT LENGTH:     279990      RECORD LENGTH: 524288

 Memory used in sort:       0.84 MW

 SORT1 READ     2093033. AND WROTE      258990. INTEGRALS IN      1 RECORDS. CPU TIME:     0.03 SEC, REAL TIME:     0.03 SEC
 SORT2 READ     1530587. AND WROTE     1675365. INTEGRALS IN     36 RECORDS. CPU TIME:     0.01 SEC, REAL TIME:     0.02 SEC

 Node minimum:      278465.  Node maximum:      279990. integrals

 OPERATOR DM      FOR CENTER  0  COORDINATES:    0.000000    0.000000    0.000000


 **********************************************************************************************************************************
 DATASETS  * FILE   NREC   LENGTH (MB)   RECORD NAMES
              1      18       28.78       500      610      700      900      950      970     1000      129      960     1100   
                                          VAR    BASINP    GEOM    SYMINP    ZMAT    AOBASIS   BASIS     P2S    ABASIS      S 
                                         1400     1410     1200     1210     1080     1600     1650     1700   
                                           T        V       H0       H01     AOSYM     SMH    MOLCAS    OPER   

 PROGRAMS   *        TOTAL       INT
 CPU TIMES  *         0.61      0.45
 REAL TIME  *         0.94 SEC
 DISK USED  *        29.12 MB (local),      204.96 MB (total)
 GA USED    *         0.00 MB       (max)       0.00 MB       (current)
 **********************************************************************************************************************************


 Program * Restricted Hartree-Fock

 Orbital guess generated from atomic densities.

 Initial occupancy:   9

 NELEC=   18   SYM=1   MS2= 0   THRE=1.0D-08   THRD=1.0D-06   THRG=1.0D-06  HFMA2=F  DIIS_START=2   DIIS_MAX=10   DIIS_INCORE=F

 Level shifts:    0.00 (CLOSED)    0.00 (OPEN)    0.30 (GAP_MIN)

 ITER           ETOT              DE          GRAD        DDIFF     DIIS  NEXP   TIME(IT)  TIME(TOT)  DIAG
   1     -114.77690553    -114.77690553     0.00D+00     0.57D-01     0     0       0.04      0.11    start
   2     -114.83734595      -0.06044042     0.12D-01     0.11D-01     1     0       0.03      0.14    diag
   3     -114.87429384      -0.03694789     0.11D-01     0.45D-02     2     0       0.04      0.18    diag
   4     -114.87879257      -0.00449873     0.17D-02     0.22D-02     3     0       0.05      0.23    diag
   5     -114.87958835      -0.00079578     0.10D-02     0.98D-03     4     0       0.05      0.28    diag
   6     -114.87971092      -0.00012257     0.23D-03     0.41D-03     5     0       0.03      0.31    diag
   7     -114.87974191      -0.00003099     0.11D-03     0.23D-03     6     0       0.05      0.36    diag
   8     -114.87974551      -0.00000359     0.33D-04     0.71D-04     7     0       0.04      0.40    fixocc
   9     -114.87974572      -0.00000021     0.91D-05     0.19D-04     8     0       0.05      0.45    diag
  10     -114.87974572      -0.00000001     0.29D-05     0.30D-05     9     0       0.11      0.56    diag/orth
  11     -114.87974572      -0.00000000     0.81D-06     0.10D-05     9     0       0.07      0.63    diag
  12     -114.87974572      -0.00000000     0.25D-06     0.41D-06     9     0       0.04      0.67    diag
  13     -114.87974572      -0.00000000     0.14D-06     0.15D-06     0     0       0.05      0.72    diag

 Final occupancy:   9

 !RHF STATE 1.1 Energy               -114.879745724884
  RHF One-electron energy            -232.127207995227
  RHF Two-electron energy              79.435096895801
  RHF Kinetic energy                  114.571853331179
  RHF Nuclear energy                   37.812365374543
  RHF Virial quotient                  -1.002687330132

 !RHF STATE 1.1 Dipole moment           0.02185972     0.56970047     0.11660383
 Dipole moment /Debye                   0.05556188     1.44803415     0.29637738

 Orbital energies:

           1.1          2.1          3.1          4.1          5.1          6.1          7.1          8.1          9.1         10.1
    -20.563149   -11.264024    -1.276592    -0.902705    -0.614595    -0.603325    -0.567095    -0.434900    -0.402123     0.011775

          11.1
      0.172074


 HOMO      9.1    -0.402123 =     -10.9423eV
 LUMO     10.1     0.011775 =       0.3204eV
 LUMO-HOMO         0.413898 =      11.2627eV

 Orbitals saved in record  2100.2


 **********************************************************************************************************************************
 DATASETS  * FILE   NREC   LENGTH (MB)   RECORD NAMES
              1      18       28.78       500      610      700      900      950      970     1000      129      960     1100   
                                          VAR    BASINP    GEOM    SYMINP    ZMAT    AOBASIS   BASIS     P2S    ABASIS      S 
                                         1400     1410     1200     1210     1080     1600     1650     1700   
                                           T        V       H0       H01     AOSYM     SMH    MOLCAS    OPER   

              2       4        0.49       700     1000      520     2100   
                                         GEOM     BASIS   MCVARS     RHF  

 PROGRAMS   *        TOTAL    HF-SCF       INT
 CPU TIMES  *         1.36      0.75      0.45
 REAL TIME  *         1.22 SEC
 DISK USED  *        29.56 MB (local),      207.60 MB (total)
 GA USED    *         0.00 MB       (max)       0.00 MB       (current)
 **********************************************************************************************************************************


 PROGRAM * CCSD (Closed-shell coupled cluster)     Authors: C. Hampel, H.-J. Werner, 1991, M. Deegan, P.J. Knowles, 1992


 Convergence thresholds:  THRVAR = 1.00D-12  THRDEN = 1.00D-08

 Using ITF CCSD gradient implementation

 Number of core orbitals:           2 (   2 )
 Number of closed-shell orbitals:   7 (   7 )
 Number of external orbitals:      51 (  51 )

 Molecular orbitals read from record     2100.2  Type=RHF/CANONICAL  

 Integral transformation finished. Total CPU:   4.64 sec, npass=  1  Memory used:   1.17 MW
  Reference energy                   -114.879745724884

  MP2 correlation energy               -0.391127260901
  MP2 total energy                   -115.270872985785

 ITER.      SQ.NORM     CORR.ENERGY   TOTAL ENERGY   ENERGY CHANGE        DEN1      VAR(S)    VAR(P)  DIIS     TIME
   1      1.15259676    -0.41288325  -115.29262898    -0.02175599    -0.00390640  3.47e-03  4.34e-03  1  1     4.65
   2      1.17955702    -0.41803781  -115.29778353    -0.00515456    -0.01530478  3.01e-04  1.84e-03  2  2     9.17
   3      1.19590682    -0.41987435  -115.29962008    -0.00183655    -0.00363111  3.93e-05  6.95e-04  3  3    14.11
   4      1.21437925    -0.42102940  -115.30077513    -0.00115505    -0.00379523  1.75e-05  2.18e-04  4  4    19.31
   5      1.22917587    -0.42118575  -115.30093147    -0.00015635    -0.00215032  1.18e-06  4.64e-05  5  5    24.30
   6      1.23822893    -0.42109696  -115.30084268     0.00008879    -0.00099059  2.59e-07  3.77e-06  6  0    30.66
   7      1.23975576    -0.42103657  -115.30078230     0.00006039    -0.00012859  8.50e-08  4.38e-07  6  1    34.58
   8      1.23993559    -0.42103582  -115.30078155     0.00000075    -0.00000026  5.23e-09  5.61e-08  6  2    39.75
   9      1.24002763    -0.42103642  -115.30078214    -0.00000059    -0.00000209  6.29e-10  1.12e-08  6  3    44.52
  10      1.24010126    -0.42103667  -115.30078240    -0.00000026    -0.00000106  7.01e-11  5.95e-10  6  4    50.15
  11      1.24011567    -0.42103676  -115.30078248    -0.00000009    -0.00000025  1.66e-11  1.46e-10  6  5    54.80
  12      1.24011764    -0.42103678  -115.30078251    -0.00000002     0.00000023  5.86e-12  5.37e-11  6  0    59.90
  13      1.24011597    -0.42103684  -115.30078257    -0.00000006     0.00000035  2.86e-12  1.92e-11  6  1    64.65
  14      1.24011363    -0.42103689  -115.30078262    -0.00000005     0.00000028  1.56e-12  8.04e-12  6  2    68.58
  15      1.24011225    -0.42103693  -115.30078265    -0.00000003     0.00000017  6.40e-13  3.38e-12  6  3    74.10
  16      1.24011199    -0.42103695  -115.30078267    -0.00000002     0.00000005  1.81e-13  9.39e-13  6  4    78.83
  17      1.24011233    -0.42103694  -115.30078267     0.00000000    -0.00000003  1.18e-14  1.28e-13          83.19

 Norm of t1 vector:      0.15149141     S-energy:     -0.00000001   T1 diagnostic:  0.02862919

 Time per iteration:                      4.89 sec

 RESULTS
 =======

  Reference energy                   -114.879745724884
  CCSD correlation energy              -0.421036940793
 !CCSD total energy                  -115.300782665677

 Starting CP-CCSD iterations.   Author: W. Gyorffy (2012)

 ITER.      NRM1           NRM2      VAR(S)+VAR(P)   DIIS    TIME
   1     0.01935344     0.39298742     4.38e-03      1  1    5.76
   2     0.01801358     0.38898328     1.75e-04      2  2   11.83
   3     0.01703447     0.38634949     5.92e-05      3  3   17.32
   4     0.01616105     0.38456974     2.30e-05      4  4   23.39
   5     0.01528716     0.38322264     8.24e-06      5  5   28.75
   6     0.01450037     0.38225957     2.16e-06      6  0   34.14
   7     0.01402226     0.38184040     7.76e-07      6  1   39.67
   8     0.01363157     0.38156509     1.08e-07      6  2   46.44
   9     0.01347313     0.38147839     6.87e-09      6  3   51.99
  10     0.01344749     0.38146680     5.59e-10      6  4   58.01
  11     0.01344384     0.38146750     6.54e-11      6  5   63.18
  12     0.01344267     0.38146736     7.09e-12      6  0   70.54
  13     0.01344300     0.38146791     1.53e-12      6  1   76.93
  14     0.01344306     0.38146816     3.87e-13             82.92


 Time per iteration:                      5.92 sec

 CPHF start vector      0.2 not found

 Starting Coupled-perturbed Hartree-Fock, convergence threshold= 1.0D-06

 ITER   MIC  DIIS      VAR         VARC       CPU
   1     0     1    0.55D-02    0.15D-02     0.00
   2     6     2    0.33D-03    0.38D-04     0.01
   3     6     3    0.46D-05    0.25D-05     0.01
   4     2     4    0.87D-06    0.70D-07     0.02

 CPHF convergence reached in  4 macroiterations and   14 microiterations.   Accuracy: 8.6888D-07

 CPHF solution written to record  8500.2

 Dipole moments (unrelaxed):            0.03059688     0.35298750     0.36201623
 Orbital relaxation contribution:      -0.00049535    -0.00155742     0.01561950
 !CCSD STATE 1.1 Dipole moment          0.03010152     0.35143008     0.37763573
 Dipole moment /Debye                   0.07651044     0.89324617     0.95985429

 CPU-time for coupled-perturbed hartree-fock:          0.09 sec

 Number of N-1 electron functions:               7
 Number of N-2 electron functions:              28
 Number of singly external CSFs:               357
 Number of doubly external CSFs:             63903
 Total number of CSFs:                       64261

 CCSD gradient info saved on record        55555.1




 **********************************************************************************************************************************
 DATASETS  * FILE   NREC   LENGTH (MB)   RECORD NAMES
              1      20       40.79       500      610      700      900      950      970     1000      129      960     1100   
                                          VAR    BASINP    GEOM    SYMINP    ZMAT    AOBASIS   BASIS     P2S    ABASIS      S 
                                         1400     1410     1200     1210     1080     1600     1650     1700     1380    55555   
                                           T        V       H0       H01     AOSYM     SMH    MOLCAS    OPER     JKOP     CCSD   

              2       5        0.58       700     1000      520     2100     8500   
                                         GEOM     BASIS   MCVARS     RHF     CPHF   

 PROGRAMS   *        TOTAL      CCSD    HF-SCF       INT
 CPU TIMES  *       206.96    205.57      0.75      0.45
 REAL TIME  *        80.19 SEC
 DISK USED  *        41.45 MB (local),      278.95 MB (total)
 SF USED    *        63.78 MB
 GA USED    *         0.00 MB       (max)       0.00 MB       (current)
 **********************************************************************************************************************************


 PROGRAM * OPT (Geometry optimization)     Authors: F. Eckert and H.-J. Werner


 BFGS update of hessian

 *** Long output written to logfile /home/zwa/Overlap_Integral_Project/overlap_integral_gaussian/molpro_files/methanol/methanolccsd/methanol.log ***


 Geometry optimization using default procedure for command CCSD

 Geometry written to block  1 of record 700

 Making model hessian for cartesian coordinates

 Entering Rational Function Geometry Optimization

 ITER.   ENERGY(OLD)    ENERGY(NEW)      DE          GRADMAX     GRADNORM    GRADRMS     STEPMAX     STEPLEN     STEPRMS   CPU-time
   1  -115.30078267  -115.32612671    -0.02534404  0.05783538  0.09900861  0.00825072  0.19948581  0.30000000  0.12247449    228.44
   2  -115.32612671  -115.35002951    -0.02390280  0.06452354  0.11368663  0.00947389  0.21532320  0.30000000  0.12247449    430.10
   3  -115.35002951  -115.38575690    -0.03572739  0.09907906  0.16100434  0.01341703  0.17617398  0.30000000  0.12247449    603.62
   4  -115.38575690  -115.42309329    -0.03733639  0.10226778  0.15065824  0.01255485  0.21629374  0.30000000  0.12247449    769.71
   5  -115.42309329  -115.44115456    -0.01806128  0.06411610  0.11251326  0.00937611  0.19665073  0.30000000  0.12247449    977.62
   6  -115.44115456  -115.45102323    -0.00986867  0.05985230  0.08177673  0.00681473  0.22593469  0.30000000  0.12247449   1467.50
   7  -115.45102323  -115.45606039    -0.00503716  0.02538745  0.04409914  0.00367493  0.24862352  0.30000000  0.12247449   1975.15
   8  -115.45606039  -115.45707425    -0.00101385  0.01673643  0.02639904  0.00219992  0.08799111  0.12809001  0.05229253   2164.44
   9  -115.45707425  -115.45731630    -0.00024206  0.00387122  0.00633976  0.00052831  0.07897768  0.08749563  0.03571994   2325.24
  10  -115.45731630  -115.45752851    -0.00021221  0.00512182  0.00760004  0.00063334  0.16850830  0.18014656  0.07354453   2480.25
  11  -115.45752851  -115.45780002    -0.00027151  0.01524734  0.02195855  0.00182988  0.02203244  0.03302837  0.01348378   2637.40
  12  -115.45780002  -115.45815842    -0.00035839  0.00721022  0.00990608  0.00082551  0.15159963  0.16640115  0.06793299   2790.77
  13  -115.45815842  -115.45832297    -0.00016455  0.01002854  0.01156378  0.00096365  0.07415601  0.08352504  0.03409895   2946.98
  14  -115.45832297  -115.45831266     0.00001031  0.00333592  0.00459097  0.00038258  0.13620038  0.14245104  0.05815539   3107.36
  15  -115.45831266  -115.45841484    -0.00010218  0.01108154  0.01574992  0.00131249  0.03448613  0.04412635  0.01801451   3272.52
  16  -115.45841484  -115.45843522    -0.00002038  0.00339029  0.00430804  0.00035900  0.02236855  0.02638353  0.01077103   3428.55
  17  -115.45843522  -115.45844033    -0.00000511  0.00038247  0.00084432  0.00007036  0.02526828  0.02657624  0.01084970   3593.12
  18  -115.45844033  -115.45844192    -0.00000160  0.00115343  0.00155195  0.00012933  0.00917380  0.00975720  0.00398336   3758.75
  19  -115.45844192  -115.45844218    -0.00000026  0.00052928  0.00062890  0.00005241  0.00428980  0.00451939  0.00184503   3930.66
  20  -115.45844218  -115.45844219    -0.00000001  0.00009356  0.00011042  0.00000920  0.00078890  0.00083531  0.00034102   4091.52

 END OF GEOMETRY OPTIMIZATION.

 Geometry written to block  1 of record 700

 Recomputing wavefunction for reoriented structure

 Current geometry (xyz format, in Angstrom)

    6
 CCSD/6-311G(D,P)  ENERGY=-115.45844219
 C          0.0000020730        0.0123355824        0.7250122034
 H         -0.0000708683       -1.0141497444        1.0994960820
 H          0.8934009212        0.5201408894        1.1156998782
 H         -0.8933508066        0.5202465435        1.1156999693
 O          0.0000000399       -0.0636025389       -0.6898757907
 H         -0.0000045627        0.8363028277       -1.0146656876

 **********************************************************************************************************************************


 **********************************************************************************************************************************
 DATASETS  * FILE   NREC   LENGTH (MB)   RECORD NAMES
              1      20       40.79       500      610      700      900      950      970     1000      129      960     1100   
                                          VAR    BASINP    GEOM    SYMINP    ZMAT    AOBASIS   BASIS     P2S    ABASIS      S 
                                         1400     1410     1200     1210     1080     1600     1650     1700     1380    55555   
                                           T        V       H0       H01     AOSYM     SMH    MOLCAS    OPER     JKOP     CCSD   

              2       6        0.60       700     1000      520     2100     8500     9001   
                                         GEOM     BASIS   MCVARS     RHF     CPHF    DEN_MP2    

 PROGRAMS   *        TOTAL      OPTG      CCSD    HF-SCF       INT
 CPU TIMES  *      4456.89   4249.93    205.57      0.75      0.45
 REAL TIME  *      2023.60 SEC
 DISK USED  *        41.47 MB (local),      281.48 MB (total)
 SF USED    *        63.78 MB
 GA USED    *         0.00 MB       (max)       0.00 MB       (current)
 **********************************************************************************************************************************


 PROGRAM * HESSIAN

 Computing numerical hessian using default procedure for command CCSD

 Using no symmetry in wavefunction calculations

 Running default procedure: HF-SCF000  CCSD


 Numerically approximating hessian using central gradient differences

 Task list generated. Total number of displacements:     36

   30 tasks completed, CPU=59m 38s Elapsed=22m 33s

 All  36 tasks completed.  CPU=   4037.29 sec, Elapsed=   1519.11 sec.

 CCSD hessian saved to record  5300.2

 PROGRAM * FREQUENCIES (Calculation of harmonic vibrational spectra for CCSD)


 Permanent Dipole Moment [debye]
   1-  3   -0.000008    1.482148    0.920475

 Dipole Moment Norm    1.7447167 [debye]

 Dipole Moment Derivatives [debye/ang]
              1             2             3             4             5             6             7             8
    1    2.07847282   -0.00003431    0.00000466    0.27737958   -0.00005157    0.00000350   -0.66681157   -0.45899284
    2   -0.00002602    1.47375711    0.19701392   -0.00006708   -0.62732146    0.17446798   -0.45618914   -0.07136983
    3   -0.00001251   -0.09256789    3.87547175    0.00002725    0.37338946   -0.01581669   -0.40994521   -0.28707590
              9            10            11            12            13            14            15            16
    1   -0.25135918   -0.66673452    0.45908268    0.25135209   -2.74062938   -0.00000314   -0.00000352    1.71828376
    2   -0.10774226    0.45628039   -0.07147657   -0.10777734    0.00002199   -1.20370466   -0.04367296   -0.00002016
    3   -0.38883815    0.40992522   -0.28712942   -0.38884069    0.00000356    0.20907860   -4.30398828    0.00000171
             17            18
    1   -0.00000076    0.00000247
    2    0.49987673   -0.11240520
    3    0.08436855    1.22206778

 Projecting out rotations and translations

 Force Constants (Second Derivatives of the Energy) in [a.u.]
                             CX1         CY1         CZ1         HX2         HY2     
           CX1           0.5706159
           CY1           0.0000142   0.6166213
           CZ1           0.0000091  -0.0159268   0.5089892
           HX2          -0.0525414  -0.0000186   0.0000057   0.0480614
           HY2          -0.0000177  -0.2992424   0.0831443   0.0000187   0.3162660
           HZ2           0.0000046   0.0689640  -0.0734307  -0.0000060  -0.0905136
           HX3          -0.2270079  -0.0972583  -0.0628027   0.0010417   0.0007142
           HY3          -0.0960865  -0.1104452  -0.0355653  -0.0269039  -0.0127899
           HZ3          -0.0595454  -0.0319197  -0.0749120   0.0085564   0.0038107
           HX4          -0.2269730   0.0972629   0.0627907   0.0010449  -0.0007157
           HY4           0.0960901  -0.1104622  -0.0355685   0.0269030  -0.0127938
           HZ4           0.0595323  -0.0319215  -0.0749106  -0.0085559   0.0038117
           OX5          -0.0641735  -0.0000006  -0.0000031   0.0019639   0.0000007
           OY5           0.0000000  -0.0976337   0.0132841   0.0000007   0.0060855
           OZ5          -0.0000005  -0.0356289  -0.2633573  -0.0000001   0.0011639
           HX6           0.0000798   0.0000005   0.0000003   0.0004295  -0.0000002
           HY6          -0.0000001   0.0011620  -0.0093678   0.0000001   0.0024746
           HZ6          -0.0000001   0.0464329  -0.0223787  -0.0000001  -0.0014170
                             HZ2         HX3         HY3         HZ3         HX4     
           HZ2           0.0955053
           HX3           0.0007962   0.2390604
           HY3          -0.0092427   0.1074680   0.1097464
           HZ3           0.0051867   0.0740112   0.0432755   0.0930575
           HX4          -0.0007974  -0.0220506   0.0138519   0.0071674   0.2390223
           HY4          -0.0092425  -0.0138479   0.0086152   0.0046512  -0.1074745
           HZ4           0.0051865  -0.0071669   0.0046522   0.0060678  -0.0739987
           OX5           0.0000019   0.0090275   0.0002773  -0.0299380   0.0090275
           OY5           0.0398390   0.0028205   0.0042061  -0.0181393  -0.0028210
           OZ5          -0.0240875  -0.0039263  -0.0034284  -0.0310565   0.0039263
           HX6           0.0000006  -0.0000712   0.0013933  -0.0002516  -0.0000711
           HY6           0.0001958   0.0001035   0.0006673  -0.0016783  -0.0001036
           HZ6          -0.0083602  -0.0009115   0.0003088   0.0016565   0.0009116
                             HY4         HZ4         OX5         OY5         OZ5     
           HY4           0.1097666
           HZ4           0.0432796   0.0930551
           OX5          -0.0002768   0.0299377   0.0478278
           OY5           0.0042064  -0.0181434  -0.0000033   0.5797950
           OZ5          -0.0034286  -0.0310559   0.0000023  -0.1360635   0.4439658
           HX6          -0.0013939   0.0002514  -0.0036731   0.0000031  -0.0000017
           HY6           0.0006677  -0.0016786   0.0000028  -0.4966593   0.1773856
           HZ6           0.0003088   0.0016571  -0.0000008   0.1192232  -0.0944085
                             HX6         HY6         HZ6     
           HX6           0.0033062
           HY6          -0.0000028   0.4916877
           HZ6           0.0000009  -0.1648567   0.1218338


 Atomic Masses
   1-  6   12.000000    1.007825    1.007825    1.007825   15.994910    1.007825

 Mass weighted Second Derivative Matrix
                             CX1         CY1         CZ1         HX2         HY2     
           CX1           0.0475513
           CY1           0.0000012   0.0513851
           CZ1           0.0000008  -0.0013272   0.0424158
           HX2          -0.0151084  -0.0000053   0.0000016   0.0476882
           HY2          -0.0000051  -0.0860478   0.0239083   0.0000185   0.3138104
           HZ2           0.0000013   0.0198308  -0.0211152  -0.0000060  -0.0898108
           HX3          -0.0652766  -0.0279669  -0.0180591   0.0010337   0.0007087
           HY3          -0.0276299  -0.0317588  -0.0102269  -0.0266950  -0.0126906
           HZ3          -0.0171224  -0.0091786  -0.0215411   0.0084900   0.0037811
           HX4          -0.0652666   0.0279682   0.0180556   0.0010368  -0.0007101
           HY4           0.0276309  -0.0317637  -0.0102278   0.0266942  -0.0126944
           HZ4           0.0171186  -0.0091791  -0.0215407  -0.0084894   0.0037821
           OX5          -0.0046321  -0.0000000  -0.0000002   0.0004891   0.0000002
           OY5           0.0000000  -0.0070472   0.0009589   0.0000002   0.0015157
           OZ5          -0.0000000  -0.0025717  -0.0190092  -0.0000000   0.0002899
           HX6           0.0000230   0.0000001   0.0000001   0.0004261  -0.0000002
           HY6          -0.0000000   0.0003341  -0.0026937   0.0000001   0.0024554
           HZ6          -0.0000000   0.0133519  -0.0064350  -0.0000001  -0.0014060
                             HZ2         HX3         HY3         HZ3         HX4     
           HZ2           0.0947638
           HX3           0.0007900   0.2372043
           HY3          -0.0091710   0.1066336   0.1088943
           HZ3           0.0051464   0.0734366   0.0429395   0.0923349
           HX4          -0.0007912  -0.0218794   0.0137443   0.0071118   0.2371665
           HY4          -0.0091707  -0.0137404   0.0085483   0.0046151  -0.1066400
           HZ4           0.0051463  -0.0071113   0.0046160   0.0060207  -0.0734241
           OX5           0.0000005   0.0022485   0.0000691  -0.0074566   0.0022485
           OY5           0.0099226   0.0007025   0.0010476  -0.0045179  -0.0007026
           OZ5          -0.0059994  -0.0009779  -0.0008539  -0.0077352   0.0009779
           HX6           0.0000006  -0.0000706   0.0013825  -0.0002496  -0.0000706
           HY6           0.0001943   0.0001027   0.0006621  -0.0016653  -0.0001028
           HZ6          -0.0082953  -0.0009044   0.0003065   0.0016436   0.0009046
                             HY4         HZ4         OX5         OY5         OZ5     
           HY4           0.1089144
           HZ4           0.0429436   0.0923326
           OX5          -0.0000689   0.0074565   0.0029902
           OY5           0.0010477  -0.0045189  -0.0000002   0.0362487
           OZ5          -0.0008539  -0.0077350   0.0000001  -0.0085067   0.0277567
           HX6          -0.0013830   0.0002495  -0.0009149   0.0000008  -0.0000004
           HY6           0.0006625  -0.0016655   0.0000007  -0.1237015   0.0441809
           HZ6           0.0003064   0.0016442  -0.0000002   0.0296946  -0.0235141
                             HX6         HY6         HZ6     
           HX6           0.0032805
           HY6          -0.0000028   0.4878701
           HZ6           0.0000009  -0.1635767   0.1208878


 Mass Weighted 2nd Derivative Matrix Eigenvalues
   1- 10    0.000000    0.000000    0.000000    0.000000    0.000000    0.000000    0.004423    0.045417    0.047135    0.054298
  11- 18    0.076088    0.087078    0.087344    0.089395    0.345744    0.357687    0.374756    0.584131

 Mass Weighted 2nd Derivative Matrix Eigenvectors
              1             2             3             4             5             6             7             8
    1    0.81704670   -0.09445076    0.07742714    0.02862338    0.03919875    0.03369374    0.00741504   -0.00000854
    2   -0.10676117   -0.38548783    0.14690783    0.28198198    0.32197380    0.55655040    0.00000257   -0.18737850
    3    0.04467043    0.25245757   -0.32828259   -0.23193128    0.33755822    0.18314610   -0.00000341    0.37254101
    4    0.29699215   -0.26636640   -0.36749498    0.02737122   -0.22532337    0.08596883    0.28762957   -0.00000408
    5   -0.03770886   -0.12906307    0.07141042    0.06742811    0.08384473    0.23371781   -0.00001938    0.10187562
    6   -0.00559756    0.02556484   -0.01617112   -0.10638293    0.07183750    0.25162151   -0.00000474    0.52085690
    7    0.28707273    0.01705685    0.22366142   -0.06013985    0.15253868   -0.04993301   -0.10011754   -0.02820742
    8   -0.03091336   -0.29607083   -0.27145804    0.11680413   -0.13621332    0.31563207    0.21572685    0.17002517
    9   -0.10208991    0.21118608   -0.14710955    0.04367572    0.07331344   -0.01102158   -0.05036313   -0.13406781
   10    0.28707190    0.01707650    0.22370212   -0.06014577    0.15256466   -0.04994233   -0.10014191    0.02821615
   11   -0.04508859    0.03640655    0.41669804    0.01682646    0.30303504    0.15808893   -0.21570956    0.17000731
   12    0.14633336   -0.01776522   -0.12130173   -0.13934911    0.14805304   -0.07928943    0.05036120   -0.13407653
   13    0.16200277    0.55694678   -0.10856505    0.62737248   -0.26488701    0.28087352   -0.24419700    0.00000476
   14   -0.02137770   -0.18373183   -0.26400178    0.54059480    0.51444658   -0.44772234   -0.00000277    0.00085720
   15    0.04610591    0.27744030   -0.35573535   -0.27931089    0.38205709    0.26996049    0.00000467   -0.48934411
   16   -0.01163133    0.34887525    0.31464851    0.14039682    0.14115302    0.00356228    0.85987718    0.00000587
   17    0.00050426   -0.03106130   -0.09125220    0.14808876    0.13735925   -0.17520849    0.00000426    0.20125033
   18    0.02783938    0.11136169   -0.15852268   -0.03577992    0.11868840   -0.10630010   -0.00000017    0.41123996
              9            10            11            12            13            14            15            16
    1   -0.00001157    0.42245155   -0.00000366   -0.19799454    0.00017793   -0.00004079   -0.00028748   -0.31033115
    2    0.18463818   -0.00000471    0.37484821    0.00007382    0.07142837   -0.12090665    0.09630610   -0.00000169
    3    0.55971612    0.00001498   -0.07270596   -0.00026996   -0.32488374   -0.19657146    0.14433743   -0.00015108
    4    0.00001391   -0.24498402    0.00003064    0.70959551   -0.00062348    0.00008012   -0.00000615   -0.02464690
    5   -0.08094355    0.00001369   -0.00283121    0.00019179    0.25892114   -0.03979812    0.27477425   -0.00046844
    6   -0.20814937   -0.00002466   -0.33028537    0.00059323    0.61775864   -0.11348111   -0.09366398    0.00016278
    7    0.02783778   -0.16922805    0.10826430    0.05998386    0.01273435   -0.39695851   -0.55053592    0.54420994
    8   -0.11931882    0.08244911   -0.19129955   -0.37282089   -0.31698217    0.36406104   -0.30107012    0.32411506
    9    0.30016791    0.56674740    0.12229369    0.29291451    0.34093184    0.40489328   -0.21952892    0.22606928
   10   -0.02782991   -0.16922170   -0.10827488    0.05993255   -0.01287953    0.39701581    0.55152681    0.54321539
   11   -0.11930272   -0.08244363   -0.19125117    0.37218106   -0.31765381    0.36410122   -0.30174560   -0.32364163
   12    0.30022773   -0.56667245    0.12230132   -0.29239962    0.34147483    0.40486756   -0.21995106   -0.22568007
   13    0.00000407   -0.21983203   -0.00000097   -0.03416239    0.00003515    0.00000206    0.00000116    0.00153619
   14   -0.05487023   -0.00000134   -0.27938351    0.00005321    0.03534780   -0.07645082   -0.00061595   -0.00000124
   15   -0.48922916   -0.00002542   -0.09126144   -0.00002184   -0.02930263   -0.03611689    0.00776493   -0.00000697
   16    0.00000193    0.00147936   -0.00000356   -0.01021016    0.00001464   -0.00000489    0.00000263    0.00193884
   17   -0.09896001    0.00000241    0.20493054   -0.00001869   -0.01157667    0.03340501   -0.00182116    0.00000580
   18   -0.37462324   -0.00000071    0.70013956   -0.00008957   -0.06237656    0.12589784    0.00415531   -0.00000290
             17            18
    1   -0.00009539   -0.00000005
    2   -0.29449501   -0.00736267
    3    0.05320800   -0.00327922
    4    0.00005487    0.00000075
    5    0.86569461    0.01139944
    6   -0.30376840   -0.00187211
    7    0.15922015    0.00083796
    8    0.07135442    0.00054771
    9    0.06230092   -0.00308906
   10   -0.15894787   -0.00083861
   11    0.07121547    0.00054873
   12    0.06218980   -0.00308921
   13    0.00000070    0.00000133
   14    0.00532130   -0.22482403
   15   -0.00042031    0.09020867
   16   -0.00000077   -0.00000525
   17   -0.01327101    0.90856561
   18   -0.00264888   -0.34000820

   Low Vibration      Wavenumber
        Nr             [1/cm] 
        1                0.00
        2                0.00
        3                0.00
        4                0.00
        5                0.00
        6                0.00

     Vibration        Wavenumber
        Nr             [1/cm] 
        1              341.85
        2             1095.50
        3             1116.03
        4             1197.83
        5             1417.95
        6             1516.91
        7             1519.22
        8             1536.96
        9             3022.61
       10             3074.37
       11             3146.87
       12             3928.79

 FREQUENCIES * CALCULATION OF NORMAL MODES FOR CCSD


 Atomic Coordinates

  Nr  Atom  Charge       X              Y              Z

   1   C     6.00    0.000003917    0.023310872    1.370074501
   2   H     1.00   -0.000133922   -1.916465266    2.077746470
   3   H     1.00    1.688283061    0.982923827    2.108367207
   4   H     1.00   -1.688188358    0.983123484    2.108367379
   5   O     8.00    0.000000075   -0.120191379   -1.303676305
   6   H     1.00   -0.000008622    1.580383302   -1.917440258

 Gradient norm at reference geometry: 0.20867D-03

 Normal Modes

                              1 A         2 A         3 A         4 A         5 A  
 Wavenumbers [cm-1]          341.85     1095.50     1116.03     1197.83     1417.95
 Intensities [km/mol]        119.83       98.45        9.39        1.77       27.04
 Intensities [relative]      100.00       82.16        7.84        1.48       22.56
           CX1              0.00214    -0.00000    -0.00000     0.12195    -0.00000
           CY1              0.00000    -0.05409     0.05330    -0.00000     0.10821
           CZ1             -0.00000     0.10754     0.16158     0.00000    -0.02099
           HX2              0.28651    -0.00000     0.00001    -0.24403     0.00003
           HY2             -0.00002     0.10148    -0.08063     0.00001    -0.00282
           HZ2             -0.00000     0.51883    -0.20734    -0.00002    -0.32900
           HX3             -0.09973    -0.02810     0.02773    -0.16857     0.10784
           HY3              0.21489     0.16936    -0.11885     0.08213    -0.19056
           HZ3             -0.05017    -0.13355     0.29900     0.56454     0.12182
           HX4             -0.09975     0.02811    -0.02772    -0.16856    -0.10785
           HY4             -0.21487     0.16935    -0.11884    -0.08212    -0.19051
           HZ4              0.05017    -0.13356     0.29906    -0.56447     0.12183
           OX5             -0.06106     0.00000     0.00000    -0.05497    -0.00000
           OY5             -0.00000     0.00021    -0.01372    -0.00000    -0.06986
           OZ5              0.00000    -0.12236    -0.12233    -0.00001    -0.02282
           HX6              0.85653     0.00001     0.00000     0.00147    -0.00000
           HY6              0.00000     0.20047    -0.09858     0.00000     0.20413
           HZ6             -0.00000     0.40964    -0.37317    -0.00000     0.69742

                              6 A         7 A         8 A         9 A        10 A  
 Wavenumbers [cm-1]         1516.91     1519.22     1536.96     3022.61     3074.37
 Intensities [km/mol]          1.65        7.65        3.90       55.33       73.88
 Intensities [relative]        1.38        6.39        3.25       46.17       61.66
           CX1             -0.05716     0.00005    -0.00001    -0.00008    -0.08958
           CY1              0.00002     0.02062    -0.03490     0.02780    -0.00000
           CZ1             -0.00008    -0.09379    -0.05675     0.04167    -0.00004
           HX2              0.70684    -0.00062     0.00008    -0.00001    -0.02455
           HY2              0.00019     0.25791    -0.03964     0.27371    -0.00047
           HZ2              0.00059     0.61536    -0.11304    -0.09330     0.00016
           HX3              0.05975     0.01268    -0.39541    -0.54839     0.54209
           HY3             -0.37137    -0.31575     0.36264    -0.29990     0.32285
           HZ3              0.29178     0.33961     0.40332    -0.21868     0.22519
           HX4              0.05970    -0.01283     0.39547     0.54938     0.54110
           HY4              0.37073    -0.31642     0.36268    -0.30057    -0.32238
           HZ4             -0.29126     0.34015     0.40329    -0.21910    -0.22480
           OX5             -0.00854     0.00001     0.00000     0.00000     0.00038
           OY5              0.00001     0.00884    -0.01912    -0.00015    -0.00000
           OZ5             -0.00001    -0.00733    -0.00903     0.00194    -0.00000
           HX6             -0.01017     0.00001    -0.00000     0.00000     0.00193
           HY6             -0.00002    -0.01153     0.03328    -0.00181     0.00001
           HZ6             -0.00009    -0.06213     0.12541     0.00414    -0.00000

                             11 A        12 A  
 Wavenumbers [cm-1]         3146.87     3928.79
 Intensities [km/mol]         34.87       20.94
 Intensities [relative]       29.10       17.48
           CX1             -0.00003    -0.00000
           CY1             -0.08501    -0.00213
           CZ1              0.01536    -0.00095
           HX2              0.00005     0.00000
           HY2              0.86233     0.01136
           HZ2             -0.30259    -0.00186
           HX3              0.15860     0.00083
           HY3              0.07108     0.00055
           HZ3              0.06206    -0.00308
           HX4             -0.15833    -0.00084
           HY4              0.07094     0.00055
           HZ4              0.06195    -0.00308
           OX5              0.00000     0.00000
           OY5              0.00133    -0.05621
           OZ5             -0.00011     0.02256
           HX6             -0.00000    -0.00001
           HY6             -0.01322     0.90503
           HZ6             -0.00264    -0.33869


 Normal Modes of low/zero frequencies

                                  1           2           3           4           5
 Wavenumbers [cm-1]            0.00        0.00        0.00        0.00        0.00
 Intensities [km/mol]          0.00        0.00        0.00        0.00        0.00
 Intensities [relative]        0.00        0.00        0.00        0.00        0.00
           CX1              0.23586    -0.02727     0.02235     0.00826     0.01132
           CY1             -0.03082    -0.11128     0.04241     0.08140     0.09295
           CZ1              0.01290     0.07288    -0.09477    -0.06695     0.09744
           HX2              0.29584    -0.26533    -0.36607     0.02726    -0.22445
           HY2             -0.03756    -0.12856     0.07113     0.06717     0.08352
           HZ2             -0.00558     0.02547    -0.01611    -0.10597     0.07156
           HX3              0.28596     0.01699     0.22279    -0.05991     0.15195
           HY3             -0.03079    -0.29492    -0.27040     0.11635    -0.13568
           HZ3             -0.10169     0.21036    -0.14654     0.04351     0.07303
           HX4              0.28596     0.01701     0.22283    -0.05991     0.15197
           HY4             -0.04491     0.03626     0.41508     0.01676     0.30186
           HZ4              0.14576    -0.01770    -0.12083    -0.13881     0.14748
           OX5              0.04051     0.13926    -0.02715     0.15687    -0.06623
           OY5             -0.00535    -0.04594    -0.06601     0.13517     0.12863
           OZ5              0.01153     0.06937    -0.08895    -0.06984     0.09553
           HX6             -0.01159     0.34752     0.31342     0.13985     0.14060
           HY6              0.00050    -0.03094    -0.09090     0.14751     0.13682
           HZ6              0.02773     0.11093    -0.15791    -0.03564     0.11823

                                  6
 Wavenumbers [cm-1]            0.00
 Intensities [km/mol]          0.00
 Intensities [relative]        0.00
           CX1              0.00973
           CY1              0.16066
           CZ1              0.05287
           HX2              0.08563
           HY2              0.23281
           HZ2              0.25064
           HX3             -0.04974
           HY3              0.31440
           HZ3             -0.01098
           HX4             -0.04975
           HY4              0.15747
           HZ4             -0.07898
           OX5              0.07023
           OY5             -0.11195
           OZ5              0.06750
           HX6              0.00355
           HY6             -0.17453
           HZ6             -0.10589


 Frequencies dumped to record   5400.2

 Zero point energy:  0.05220397 [H]    11457.45 [1/CM]      137.06 [KJ/MOL]
 Frequency information read from record  5400.2

 Recomputing wavefunction at initial geometry


 **********************************************************************************************************************************
 DATASETS  * FILE   NREC   LENGTH (MB)   RECORD NAMES
              1      20       40.79       500      610      700      900      950      970     1000      129      960     1100   
                                          VAR    BASINP    GEOM    SYMINP    ZMAT    AOBASIS   BASIS     P2S    ABASIS      S 
                                         1400     1410     1200     1210     1080     1600     1650     1700     1380    55555   
                                           T        V       H0       H01     AOSYM     SMH    MOLCAS    OPER     JKOP     CCSD   

              2       9        0.61       700     1000      520     2100     8500     9001     5300     5450     5400   
                                         GEOM     BASIS   MCVARS     RHF     CPHF    DEN_MP2   HESS     NMOD     FREQ   

 PROGRAMS   *        TOTAL      FREQ      OPTG      CCSD    HF-SCF       INT
 CPU TIMES  *      8642.15   4185.25   4249.93    205.57      0.75      0.45
 REAL TIME  *      3605.16 SEC
 DISK USED  *       107.08 MB (local),      675.82 MB (total)
 SF USED    *        63.79 MB
 GA USED    *         0.00 MB       (max)       0.00 MB       (current)
 **********************************************************************************************************************************

 Dump information in style MOLDEN to methanolccsd.molden                                                             

 Molecular orbitals read from record     2100.2  Type=RHF/CANONICAL (state 1.1)
 Occupation numbers read from record     2100.2  Type=RHF/RHF (state 1.1)
 Orbital energies read from record       2100.2  Type=RHF/CANONICAL (state 1.1)
 Redundancy group numbers read from rec  2100.2  Type=RHF/RHF (state 1.1)

 DUMP ORBITAL  1.1 AS ORBITAL    1  occ=    2.0000  eig=  -20.5454  GROUP=   2
 DUMP ORBITAL  2.1 AS ORBITAL    2  occ=    2.0000  eig=  -11.2712  GROUP=   2
 DUMP ORBITAL  3.1 AS ORBITAL    3  occ=    2.0000  eig=   -1.3543  GROUP=   2
 DUMP ORBITAL  4.1 AS ORBITAL    4  occ=    2.0000  eig=   -0.9214  GROUP=   2
 DUMP ORBITAL  5.1 AS ORBITAL    5  occ=    2.0000  eig=   -0.6873  GROUP=   2
 DUMP ORBITAL  6.1 AS ORBITAL    6  occ=    2.0000  eig=   -0.6164  GROUP=   2
 DUMP ORBITAL  7.1 AS ORBITAL    7  occ=    2.0000  eig=   -0.5888  GROUP=   2
 DUMP ORBITAL  8.1 AS ORBITAL    8  occ=    2.0000  eig=   -0.5001  GROUP=   2
 DUMP ORBITAL  9.1 AS ORBITAL    9  occ=    2.0000  eig=   -0.4465  GROUP=   2

 Total charge:      18.000000
 Frequency information read from record  5400.2

 **********************************************************************************************************************************

 CCSD/6-311G(D,P) energy=   -115.458442192777

      OPTG(CCSD)            CCSD          HF-SCF
   -115.45844219   -115.30078267   -114.87974572
 **********************************************************************************************************************************
 Molpro calculation terminated
