[Molden Format]
[Molpro variables]
_NUMVAR=  1049.000000000000    
_AVOGAD= 0.6022140760000000E+24
_BOLTZ= 0.1380649000000000E-22
_CLIGHTSI=  299792458.0000000    
_JOULE= 0.4359744722207100E-17
_JPCAL=  4.184000000000000    
_PLANCK= 0.6626070150000000E-33
_BOHR= 0.5291772109030000E-10
_ECHARG= 0.1602176634000000E-18
_ENULL= 0.8854187812800001E-11
_MU= 0.1660539066600000E-26
_EMASS= 0.9109383701500001E-30
_AMU2AU=  1822.888486217313    
_CLIGHT=  29979245800.00000    
_EV= 0.3674932217565494E-01
_KJOULE= 0.3808798847133432E-03
_KJOULE/MOL= 0.3808798847133432E-03
_CM= 0.4556335252912009E-05
_CM-1= 0.4556335252912009E-05
_DEB2SI= 0.3335640951981520E-29
_KCAL= 0.1593601437640628E-02
_KCAL/MOL= 0.1593601437640628E-02
_KELVIN= 0.3166811563455608E-05
_HERTZ= 0.1519829846057038E-15
_HZ= 0.1519829846057038E-15
_TOA= 0.5291772109030000    
_TOANG= 0.5291772109030000    
_TORAD= 0.1745329251994330E-01
_TOCM=  219474.6313631965    
_TODEBYE=  2.541746473194078    
_TOE= 0.4803204712570263E-09
_TOEV=  27.21138624598803    
_TOHERTZ=  6579683920501656.    
_TOHZ=  6579683920501656.    
_TOK=  315775.0248040668    
_TOKCAL=  627.5094740630558    
_TOKELVIN=  315775.0248040668    
_TOKJ=  2625.499639479825    
_TOKJOULE=  2625.499639479825    
_TOKG= 0.1660539066600000E-26
_ANG=  1.889726124625770    
_ANGSTROM=  1.889726124625770    
_RPAREF=  0.000000000000000    
_RPADISS=  0.000000000000000    
_IGNORE_UNDEF=  2.000000000000000    
_STRICTCHECK=  0.000000000000000    
!SEWARD=  0.000000000000000    
!MULTI=  0.000000000000000    
!DFMULTI=  0.000000000000000    
_SEW_ONEEL=  0.000000000000000    
_CPPDONE=FALSE
_DKROLL_DONE=  0.000000000000000    
_FNUC_DONE=  0.000000000000000    
_FOCKDONE=TRUE
_GRADONE=FALSE
_HESSDONE=TRUE
_INTDONE=TRUE
_SCFDONE=TRUE
_MODUL_BLOCK=FALSE
_MODUL_CUDA=FALSE
_MODUL_SLATER=FALSE
_MODUL_MRCC=FALSE
_MODUL_NBO6=FALSE
_MODUL_NECI=FALSE
_MODUL_AIMS=TRUE
_MODUL_GECCO=FALSE
_ISWINDOWS=FALSE
_MRCC_EXEC=
_FITC_AO_SAVED=FALSE
_FITC_MO_SAVED=FALSE
_SHARED_FS=TRUE
_LSTYP=SEWARD
_INTYP=INTS
_GEOMTYP=ZMAT
_GRADTYP=ALASKA
_DIRECT=FALSE
_DKHO= -1.000000000000000    
_FNUC=  0.000000000000000    
_SYNCM=  0.000000000000000    
_BASIS=6-311G(D,P)
_ZCENTRE=MASS
_ZORIENT=  1.000000000000000    
_NELEC=  18.00000000000000    
!SPIN=  0.000000000000000    
_OPTCONV= 0.8353131262913857E-03
_QSDSTEP=  0.000000000000000    
_QSDIRC=  0.000000000000000    
_PROGRAM=FREQ
_CPUSTEP=  0.000000000000000    
_SYSSTEP=  0.000000000000000    
_WALLSTEP=  0.000000000000000    
!DFMP2=  0.000000000000000    
!DFSCF=  0.000000000000000    
!SCSGRD=  0.000000000000000    
_CPUTOT=  8642.150000000001    
_CPUCCSD=  0.000000000000000    
_SYSCCSD=  0.000000000000000    
_WALLCCSD=  0.000000000000000    
_CPUF12=  0.000000000000000    
_SYSF12=  0.000000000000000    
_WALLF12=  0.000000000000000    
_CPUF12B=  0.000000000000000    
_SYSF12B=  0.000000000000000    
_WALLF12B=  0.000000000000000    
_CPUTRANS=  0.000000000000000    
_SYSTRANS=  0.000000000000000    
_WALLTRANS=  0.000000000000000    
_DFTEXFAC=  1.000000000000000    
_DMX=-0.3214256480838815E-05
_DMY= 0.5831218511851548    
_DMZ= 0.3621426463579906    
_DMX_SCF=-0.2306481814436345E-05
_DMY_SCF= 0.6202906846656390    
_DMZ_SCF= 0.4174019081364397    
_FREQUENCIES= 0.4387679158300804E-04
_HOMO=  9.100000000000000    
_EHOMO=-0.4464908130000186    
_LUMO=  10.10000000000000    
_ELUMO= 0.1536844250996457    
_ENERGC= -115.4584421927769    
_ENERGR= -115.0748695110751    
_ENERGY= -115.4584421927769    
_ENERGY_METHOD=CCSD
_ENERGY_BASIS=6-311G(D,P)
_GEOMETRY_METHOD=
_GEOMETRY_BASIS=
_ENUC=  40.34336606039297    
_FREQSTEP=  37.00000000000000    
_GRADENERG= -115.4584360608837    
_GRADEXFAC=  9999.000000000000    
_GRADMETHOD=  12.00000000000000    
_NMRMETHOD=  0.000000000000000    
_NMRMAGNET=  0.000000000000000    
_GRADRECORD=TRUE
_VIRIAL= 0.4190729462418337E-02
!GRID_FREEZE= -1.000000000000000    
!NEESE_INDEX=  0.000000000000000    
_ITERATIONS=  10.00000000000000    
_LASTNELEC=  18.00000000000000    
_LASTSPIN=  0.000000000000000    
_LASTSYM=  1.000000000000000    
_MPP_PROG=  1.000000000000000    
_MSNSTATES=  0.000000000000000    
_RS2PHASE=  0.000000000000000    
_IPROC_MPP=  0.000000000000000    
_IPROC_MPPX=  0.000000000000000    
_NPROC_MPP=  6.000000000000000    
_NPROC_MPPX=  6.000000000000000    
_NPROC_SMP=  8.000000000000000    
_NUMSTEP=  0.000000000000000    
_OPTCONVMX= 0.7888971944641113E-03
_OPTCONVRMS= 0.3410151558104859E-03
_OPTGRAD= 0.1104223887915281E-03
_OPTGRADMX= 0.9355958180967021E-04
_OPTGRADRMS= 0.9201865732627339E-05
_OPTSTEP=  20.00000000000000    
_ORBITAL=  2100.200000000000    
_PI=  3.141592653589793    
_SEIG_MIN= 0.8973182629513526E-02
_SEWPROP=TRUE
_STATUS= -1.000000000000000    
_SYSTOT=  45.36000000000001    
_VERSION=  2022002.000000000    
_WALLTOT=  3605.160000000000    
_ZPE= 0.5220396726224546E-01
_DATE=25-Aug-25
_LASTORB=0
_METHODC=CCSD
_OUTPUT=/home/zwa/Overlap_Integral_Project/overlap_integral_gaussian/molpro_files/methanol/methanolccsd/methanol.out
_PGROUP=C1
_TIME=11:43:00
_LIBMOL=/usr/local/molpro/molpro_2022.2.3_sockets/lib/
_VIGRDC=  0.000000000000000    
!VIBCNT=  0.000000000000000    
!RGHFCNT=  0.000000000000000    
!SURFREC=  0.000000000000000    
!XSURFREC=  0.000000000000000    
!XPOLYREC=  0.000000000000000    
!ROTREC=  0.000000000000000    
!POLYREC=  0.000000000000000    
!DIPREC=  0.000000000000000    
!DIP4DREC=  0.000000000000000    
!DIPROT=  0.000000000000000    
!DIP4DROT=  0.000000000000000    
!PTREC=  0.000000000000000    
!PT4DREC=  0.000000000000000    
!VSCFREC=  0.000000000000000    
!VCIREC=  0.000000000000000    
!PVCIREC=  0.000000000000000    
!VMP2REC=  0.000000000000000    
!VMCSCFREC=  0.000000000000000    
!VMRCIREC=  0.000000000000000    
!VIBSTATEREC=  0.000000000000000    
!VIBSTATECNT=  0.000000000000000    
!VIBINFO=  0.000000000000000    
!GAREC=  0.000000000000000    
!SCFORB=  21002.00000000000    
!CIOCC=  9.000000000000000    
!CICORE=  2.000000000000000    
!DEFCORE=  2.000000000000000    
!SCORE=  0.000000000000000    
!CICLOS=  9.000000000000000    
!CIISTSYM=  1.000000000000000    
!CIISTMS2=  0.000000000000000    
!CIISTNEL=  14.00000000000000    
!NEWMOL= -1.000000000000000    
!NEWSYM= -1.000000000000000    
_SLFILES=slscratch
_NGSSTO=  9.000000000000000    
_SIN=SIN
_COS=COS
_TAN=TAN
_ACOS=ACOS
_ASIN=ASIN
_ATAN=ATAN
_COSH=COSH
_SINH=SINH
_TANH=TANH
_ABS=ABS
_MOD=MOD
_ERF=ERF
_REFC=REFC
_ERFC=ERFC
_HYPOT=HYPOT
_J0=J0
_J1=J1
_JN=JN
_GAMMA=GAMMA
_LGAMMA=LGAMMA
_Y0=Y0
_Y1=Y1
_YN=YN
_EXP=EXP
_LOG=LOG
_LOG10=LOG10
_SQRT=SQRT
_INT=INT
_NINT=NINT
_MAX=MAX
_MIN=MIN
_COSMO=  0.000000000000000    
_COSMOIT=  0.000000000000000    
_COSMOES=  0.000000000000000    
_COSMOEDS=  0.000000000000000    
_COSMOEC=  0.000000000000000    
_COSMOEDCORR=  0.000000000000000    
_FEPSI=  1.000000000000000    
_SL_IsMM=  0.000000000000000    
_SL_NSYM=  1.000000000000000    
_SL_System_BitSw=  0.000000000000000    
_SL_Unique_atoms=  0.000000000000000    
_SL_GRAD=  0.000000000000000    
_SL_MAXUPD_Hess=  5.000000000000000    
_SL_N_PRINT_COD=  5.000000000000000    
_SL_PRINT_CODES=  0.000000000000000    
_SL_BasType=  0.000000000000000    
_SL_Energy_Pred=  0.000000000000000    
_SL_New_Coords=  0.000000000000000    
_SL_Total_Nuclea=  0.000000000000000    
_SL_Highest_Mltp=  0.000000000000000    
_SL_Ref_Geom=  0.000000000000000    
_SL_Symmetry_ope=  1.000000000000000    
_SL_agrad=  0.000000000000000    
_SL_GrdMax=  0.000000000000000    
_SL_GrdNorm=  0.000000000000000    
_SL_GrdRMS=  0.000000000000000    
_SL_Hss_Q=  0.000000000000000    
_SL_Hss_X=  0.000000000000000    
_SL_BMxOld=  0.000000000000000    
_SL_KtB=  0.000000000000000    
_SL_TROld=  0.000000000000000    
_SL_No_of_Intern=  0.000000000000000    
_SL_Hess=  0.000000000000000    
_SL_K=  0.000000000000000    
!LATTICE= -1.000000000000000    
!NEWLATTICE=  0.000000000000000    
!LATGRAD_VAR=FALSE
!SEW_LATTICE=  1.000000000000000    
!AIC_ONEEL=  0.000000000000000    
!LOCAL=  0.000000000000000    
!SAVEDOM= -1.000000000000000    
!RESTDOM= -1.000000000000000    
!SAVEDOM_HF= -1.000000000000000    
!RESTDOM_HF= -1.000000000000000    
!HESSREC=  5300.200000000000    
!FREQREC=  5400.200000000000    
!NMODREC=  5450.200000000000    
!GTASKS=  0.000000000000000    
!HTASKS=  0.000000000000000    
!SAVEDOM_EOM= -1.000000000000000    
!RESTDOM_EOM= -1.000000000000000    
!GRADSTATE= -1.000000000000000    
!DEBUG=  0.000000000000000    
!CFIT_CPHF=  0.000000000000000    
!RDOMAUX_CPHF=  0.000000000000000    
!THRAO_CPHF= 0.1000000000000000E-11
!THRMO_CPHF= 0.1000000000000000E-11
!THROV_CPHF= 0.1000000000000000E-11
!THRSW_CPHF= 0.1000000000000000E-11
!THRPROD_CPHF= 0.1000000000000000E-11
!THRAOPR_CPHF= 0.1000000000000000E-11
!CFIT_SCFGRD=  0.000000000000000    
!RDOMAUX_SCFGRD=  0.000000000000000    
!THRAO_SCFGRD= 0.1000000000000000E-11
!THRMO_SCFGRD= 0.1000000000000000E-11
!THROV_SCFGRD= 0.1000000000000000E-11
!THRSW_SCFGRD= 0.1000000000000000E-11
!THRPROD_SCFGRD= 0.1000000000000000E-11
!THRAOPR_SCFGRD= 0.1000000000000000E-11
!LOCFIT_SCF=  0.000000000000000    
!LOCFIT_MP2=  0.000000000000000    
_RIDOM=  0.000000000000000    
!CC2_METHOD=  0.000000000000000    
_BASIS2006=FALSE
_SVDDEL= -1.000000000000000    
_SVDDELA= -1.000000000000000    
_SVDDELP= -1.000000000000000    
_SVDDELF= -1.000000000000000    
_SVDDELS= -1.000000000000000    
_SVDDEL_ABS= -1.000000000000000    
_SVDDELA_ABS= -1.000000000000000    
_SVDDELP_ABS= -1.000000000000000    
_SVDDELF_ABS= -1.000000000000000    
_SVDDELS_ABS= -1.000000000000000    
_MAXBASIS=  0.000000000000000    
!OPT_CONICAL=  0.000000000000000    
!CLEARSP_JGRID=  0.000000000000000    
_GRDHYBR=  0.000000000000000    
_STATEGRAD=  1.000000000000000    
_4EXT_NDISKS=  1.000000000000000    
!EMBEDFLAG=  1.000000000000000    
!EMBED=FALSE
!EMBED_F12=FALSE
!EMBEDNUC=  0.000000000000000    
_EMBEDENERGY=  0.000000000000000    
!EMBED_DFC=FALSE
!NUM_VOIDS=  0.000000000000000    
_IBODY=  0.000000000000000    
_EMBE_CORR=  0.000000000000000    
!EMBED_PROJ=FALSE
!EMB_PROJ_ZMU=  1000000.000000000    
!CORRECTION_HF=  0.000000000000000    
!EMBED_AORB=  0.000000000000000    
!EMBED_NACORR=  0.000000000000000    
!EMBED_MP2=FALSE
!EMBED_TRUNC_PERTURBATION=FALSE
!EMBED_FROZEN=  0.000000000000000    
!EMBED_ACTIVE=  0.000000000000000    
_CHANGE_BASIS=FALSE
_RESTORE_BASIS=FALSE
_FIX_EMBED_GUESS=FALSE
_EMBED_SCF=FALSE
_HUZINAGA_T=FALSE
_HUZINAGA_F=FALSE
_HUZINAGA=FALSE
_HUZINAGA_CORRECT=FALSE
!FASTLATGRAD=  1.000000000000000    
!FASTVLAMBDA= -1.000000000000000    
!IFORCE= -1.000000000000000    
!USESYM= -1.000000000000000    
_SINDEX=  0.000000000000000    
_AVDOM_OSV=  0.000000000000000    
_AVDOM_PNO=  0.000000000000000    
_AVDOM_PAO=  0.000000000000000    
_AVDOM_LMO=  0.000000000000000    
!CPP_PROG=CCSD-GRAD
_CC2OSV_FLAG=  0.000000000000000    
_EOMCCSD_CONV=FALSE
_TMADC2_FLAG=FALSE
_PROPADC2_FLAG=FALSE
_LEN_VirQ=  0.000000000000000    
_GRDCC2LR_FLAG=FALSE
_GRDADC2_FLAG=FALSE
_RO_VGLOBAL=  0.000000000000000    
_OPT=FALSE
_FREQ=FALSE
_HESS=FALSE
_CMRCC_callName=EMPTY
_CMRCC_callCount=  0.000000000000000    
_GECCO_CIROOT=  1.000000000000000    
_SYM_CATION=  1.000000000000000    
_MON_A=FALSE
_MON_B=FALSE
GX1= 0.2072999952720894E-05
GY1= 0.1233558244455002E-01
GZ1= 0.7250122033784158    
GX2=-0.7086831729437629E-04
GY2= -1.014149744409429    
GZ2=  1.099496082030124    
GX3= 0.8934009212219489    
GY3= 0.5201408894231768    
GZ3=  1.115699878227939    
GX4=-0.8933508066179604    
GY4= 0.5202465434757558    
GZ4=  1.115699969264978    
GX5= 0.3991918291686171E-07
GY5=-0.6360253887683055E-01
GZ5=-0.6898757907423476    
GX6=-0.4562689016450243E-05
GY6= 0.8363028277427842    
GZ6= -1.014665687604360    
CX1= 0.3917402167004659E-05
CY1= 0.2331087240794119E-01
CZ1=  1.370074501396684    
HX2=-0.1339217105994512E-03
HY2= -1.916465266293045    
HZ2=  2.077746470136004    
HX3=  1.688283060597846    
HY3= 0.9829238272290611    
HZ3=  2.108367207129126    
HX4= -1.688188357721464    
HY4= 0.9831234844523923    
HZ4=  2.108367379164199    
OX5= 0.7543632283170590E-07
OY5=-0.1201913793080729    
OZ5= -1.303676304512675    
HX6=-0.8622232632929089E-05
HY6=  1.580383301683945    
HZ6= -1.917440257627330    
[Atoms] Angs
C     1    6         0.0000020730        0.0123355824        0.7250122034
H     2    1        -0.0000708683       -1.0141497444        1.0994960820
H     3    1         0.8934009212        0.5201408894        1.1156998782
H     4    1        -0.8933508066        0.5202465435        1.1156999693
O     5    8         0.0000000399       -0.0636025389       -0.6898757907
H     6    1        -0.0000045627        0.8363028277       -1.0146656876
[GTO]
   1 0
 s    6  1.00
  0.4563240000D+04  0.1966650249D-02
  0.6820240000D+03  0.1523060193D-01
  0.1549730000D+03  0.7612690966D-01
  0.4445530000D+02  0.2608010331D+00
  0.1302900000D+02  0.6164620782D+00
  0.1827730000D+01  0.2210060280D+00
 s    3  1.00
  0.2096420000D+02  0.1146600807D+00
  0.4803310000D+01  0.9199996477D+00
  0.1459330000D+01 -0.3030682134D-02
 s    1  1.00
  0.4834560000D+00  0.1000000000D+01
 s    1  1.00
  0.1455850000D+00  0.1000000000D+01
 p    3  1.00
  0.2096420000D+02  0.4024869267D-01
  0.4803310000D+01  0.2375939567D+00
  0.1459330000D+01  0.8158538515D+00
 p    1  1.00
  0.4834560000D+00  0.1000000000D+01
 p    1  1.00
  0.1455850000D+00  0.1000000000D+01
 d    1  1.00
  0.6260000000D+00  0.1000000000D+01
  
   2 0
 s    3  1.00
  0.3386500000D+02  0.2549381454D-01
  0.5094790000D+01  0.1903731086D+00
  0.1158790000D+01  0.8521614860D+00
 s    1  1.00
  0.3258400000D+00  0.1000000000D+01
 s    1  1.00
  0.1027410000D+00  0.1000000000D+01
 p    1  1.00
  0.7500000000D+00  0.1000000000D+01
  
   3 0
 s    3  1.00
  0.3386500000D+02  0.2549381454D-01
  0.5094790000D+01  0.1903731086D+00
  0.1158790000D+01  0.8521614860D+00
 s    1  1.00
  0.3258400000D+00  0.1000000000D+01
 s    1  1.00
  0.1027410000D+00  0.1000000000D+01
 p    1  1.00
  0.7500000000D+00  0.1000000000D+01
  
   4 0
 s    3  1.00
  0.3386500000D+02  0.2549381454D-01
  0.5094790000D+01  0.1903731086D+00
  0.1158790000D+01  0.8521614860D+00
 s    1  1.00
  0.3258400000D+00  0.1000000000D+01
 s    1  1.00
  0.1027410000D+00  0.1000000000D+01
 p    1  1.00
  0.7500000000D+00  0.1000000000D+01
  
   5 0
 s    6  1.00
  0.8588500000D+04  0.1895150083D-02
  0.1297230000D+04  0.1438590063D-01
  0.2992960000D+03  0.7073200310D-01
  0.8737710000D+02  0.2400010105D+00
  0.2567890000D+02  0.5947970261D+00
  0.3740040000D+01  0.2808020123D+00
 s    3  1.00
  0.4211750000D+02  0.1138890124D+00
  0.9628370000D+01  0.9208111006D+00
  0.2853320000D+01 -0.3274470358D-02
 s    1  1.00
  0.9056610000D+00  0.1000000000D+01
 s    1  1.00
  0.2556110000D+00  0.1000000000D+01
 p    3  1.00
  0.4211750000D+02  0.3651139738D-01
  0.9628370000D+01  0.2371529830D+00
  0.2853320000D+01  0.8197019412D+00
 p    1  1.00
  0.9056610000D+00  0.1000000000D+01
 p    1  1.00
  0.2556110000D+00  0.1000000000D+01
 d    1  1.00
  0.1292000000D+01  0.1000000000D+01
  
   6 0
 s    3  1.00
  0.3386500000D+02  0.2549381454D-01
  0.5094790000D+01  0.1903731086D+00
  0.1158790000D+01  0.8521614860D+00
 s    1  1.00
  0.3258400000D+00  0.1000000000D+01
 s    1  1.00
  0.1027410000D+00  0.1000000000D+01
 p    1  1.00
  0.7500000000D+00  0.1000000000D+01


[MO]
 Sym=      1.1
 Ene=     -20.5454
 Spin= Alpha
 Occup=    2.000000
1 -0.000002705959923
2 -0.000031796745070
3 0.000086061787590
4 0.000512639911452
5 -0.000000000458275
6 -0.000014895742742
7 -0.000023589444416
8 0.000000001437140
9 0.000033549795039
10 -0.000265388621416
11 -0.000000008204700
12 -0.000146882990851
13 -0.000196913766196
14 -0.000057480787084
15 -0.000080841479969
16 0.000138322267053
17 0.000000000043351
18 0.000000000224059
19 -0.000017747145437
20 0.000029398653497
21 -0.000123487806107
22 -0.000047157255028
23 0.000000001318648
24 0.000015519985531
25 0.000000193089763
26 0.000009628991963
27 -0.000049835720412
28 -0.000001215092607
29 -0.000018401629055
30 0.000010425643018
31 0.000024033721993
32 0.000009629665347
33 -0.000049834604892
34 -0.000001219446921
35 0.000018403205296
36 0.000010423346173
37 0.000024035331368
38 0.55145974237529
39 0.47167493038641
40 0.005567055431239
41 -0.000802689612557
42 -0.000000000638776
43 0.001496218231623
44 0.000965096857732
45 -0.000000000513754
46 -0.000569183902986
47 -0.000345542197439
48 0.000000001703905
49 0.000126473960259
50 -0.000157633590616
51 0.000164296766277
52 -0.000022586159861
53 -0.000141710606416
54 0.000000000728928
55 -0.000000000841497
56 0.000045368848440
57 0.000209081134177
58 0.000108314923411
59 0.000065037985792
60 0.000000000614867
61 -0.000070267248659
62 0.000081479055317
 Sym=      2.1
 Ene=     -11.2712
 Spin= Alpha
 Occup=    2.000000
1 0.56347608000020
2 0.46656971881729
3 0.003978710367394
4 -0.001203204261566
5 -0.000000013389139
6 0.000051973125075
7 -0.000927548060534
8 0.000000024109938
9 -0.000045559891822
10 0.000720077861182
11 0.000000003132075
12 0.000035695655563
13 -0.000130027340122
14 0.000106275852426
15 0.000160750435006
16 -0.000267026287432
17 0.000000020214371
18 0.000000009143183
19 -0.000033237597123
20 0.000335191857936
21 0.000079768071696
22 0.000271350602636
23 -0.000000000529882
24 -0.000024512773276
25 -0.000029687457261
26 0.000338646929234
27 0.000110894718292
28 0.000240060620915
29 0.000003251844638
30 0.000002459817072
31 -0.000039559873151
32 0.000338640766036
33 0.000110935278538
34 0.000240041478551
35 -0.000003237457964
36 0.000002453520359
37 -0.000039567679723
38 -0.000068329093290
39 -0.000122582947559
40 0.000278277741210
41 0.000354592887909
42 0.000000000036811
43 0.000012938168794
44 0.000100282370648
45 0.000000001852230
46 0.000011459027027
47 0.000537289131927
48 -0.000000001382171
49 0.000019704758838
50 0.000155440305863
51 -0.000102786525206
52 -0.000119819866036
53 0.000222606391242
54 -0.000000000334207
55 0.000000000719450
56 0.000045423640373
57 -0.000013764501125
58 0.000022723517698
59 -0.000026184705939
60 0.000000000013244
61 -0.000041670256656
62 0.000018056411256
 Sym=      3.1
 Ene=      -1.3543
 Spin= Alpha
 Occup=    2.000000
1 -0.036958473219418
2 -0.060450294204739
3 0.15138261724573
4 0.004043872159008
5 -0.000000028285948
6 -0.000296361913462
7 -0.039889129318396
8 -0.000000204827425
9 0.000404990363483
10 -0.079622091064259
11 0.000000474616692
12 0.004782864876924
13 0.004146490591765
14 -0.014275352367079
15 -0.013450547373554
16 0.027725899740633
17 -0.000000087268915
18 0.000000070022569
19 -0.000206074092048
20 0.014582475546892
21 0.031064584909570
22 0.001076977472736
23 0.000000515180287
24 0.007631325016549
25 -0.003528217686747
26 0.014408366510661
27 0.029299561030241
28 -0.001009948531642
29 -0.006505093710401
30 -0.003895049913143
31 -0.004117559463771
32 0.014408065083587
33 0.029299389481342
34 -0.001009660500462
35 0.006504603573300
36 -0.003895767987525
37 -0.004117499864987
38 -0.10968099300418
39 -0.18323865614538
40 0.52029019283391
41 0.39327411113944
42 -0.000000105671182
43 0.028107093273757
44 0.020114495685244
45 -0.000000127702700
46 0.048220369351741
47 0.037235248557428
48 -0.000000124929953
49 0.017173260548519
50 0.029232880213451
51 -0.007829016589839
52 0.003156207533210
53 0.004672809056630
54 -0.000000057255438
55 0.000000037598337
56 -0.001335730057811
57 0.089058240079094
58 0.074372109048510
59 -0.000789895597241
60 0.000000153170558
61 -0.023707041099918
62 0.011693808662220
 Sym=      4.1
 Ene=      -0.9214
 Spin= Alpha
 Occup=    2.000000
1 -0.094690503921474
2 -0.15745018251226
3 0.41082986713460
4 0.24871937784433
5 0.000000594557417
6 -0.005410444184122
7 0.030739022885057
8 0.000000446769516
9 -0.008675209488497
10 0.027676606692267
11 0.000000775730646
12 0.007232192053486
13 0.024804445081535
14 -0.000291914559120
15 0.001985319204452
16 -0.001693404645332
17 0.000000380117731
18 0.000000076969711
19 0.001805840105804
20 0.086657055480745
21 0.12519581030697
22 0.007649056166242
23 0.000001483877291
24 0.020094107124686
25 -0.004952261454760
26 0.082890567339424
27 0.11588521857066
28 0.003939457522793
29 -0.016429554331947
30 -0.009835596559038
31 -0.005542705126023
32 0.082888295913650
33 0.11588317313087
34 0.003940074569930
35 0.016428243157328
36 -0.009837247569713
37 -0.005542647160667
38 0.031455118333140
39 0.052879412759191
40 -0.15324114886733
41 -0.14741117391969
42 0.000000278969146
43 -0.032227339571318
44 0.079946403443336
45 0.000000486840330
46 -0.052270852808449
47 0.12766109973440
48 0.000000068068132
49 -0.019927731075758
50 0.071094447946888
51 -0.001268692959573
52 -0.010393945496657
53 0.011662638456229
54 0.000000058260475
55 0.000000009644996
56 0.005993829145358
57 -0.069917238482761
58 -0.083416291019558
59 -0.013403312741755
60 -0.000000092891796
61 0.016409515348923
62 -0.001201156995017
 Sym=      5.1
 Ene=      -0.6873
 Spin= Alpha
 Occup=    2.000000
1 -0.011117115888519
2 -0.017962625132382
3 0.042495713719072
4 0.058951320833655
5 0.000002909827879
6 0.089646595022566
7 0.078171718852151
8 0.000004459365652
9 0.15010622110360
10 0.13445407523509
11 0.000002951978538
12 0.090685221308631
13 0.052292182830452
14 0.023261634070313
15 0.002591871993314
16 -0.025853506063626
17 -0.000001841272215
18 0.000000246588703
19 -0.010546892037061
20 -0.030499462575506
21 -0.035793708233237
22 -0.011881367515374
23 -0.000000270641822
24 -0.001326289690027
25 0.002790373270082
26 0.065514964066499
27 0.088696691021893
28 0.023772563799466
29 -0.008113792095815
30 -0.000257111996712
31 0.000496352400696
32 0.065517118012661
33 0.088700857883599
34 0.023774828347243
35 0.008113881409724
36 -0.000258229305492
37 0.000496082639413
38 0.021997622446249
39 0.037457927386830
40 -0.11490617192239
41 -0.16862656477389
42 0.000000629385997
43 0.17188138713043
44 -0.087666748705525
45 0.000001053746525
46 0.26384497963299
47 -0.13910598792368
48 0.000000779129032
49 0.17862710980194
50 -0.081481713124346
51 -0.005084039172552
52 0.019669935293018
53 -0.014585896120465
54 -0.000000036861565
55 0.000000125755804
56 0.000104073915429
57 0.13508028647084
58 0.20669071590235
59 0.039071735006292
60 0.000000313650748
61 -0.025346524115636
62 0.012749283813002
 Sym=      6.1
 Ene=      -0.6164
 Spin= Alpha
 Occup=    2.000000
1 0.000000088873272
2 0.000000131604611
3 -0.000000062634836
4 -0.000002311922133
5 0.16167567866750
6 0.000004310160452
7 -0.000003703152755
8 0.26248513218910
9 0.000006478175631
10 -0.000006580138317
11 0.15102731303826
12 0.000004994933495
13 -0.000003316623823
14 0.000003222775785
15 -0.000004618306821
16 0.000001395531037
17 0.022896338650812
18 -0.000809961931852
19 0.000000875327127
20 -0.000013193812574
21 -0.000018774789479
22 -0.000005406026428
23 0.008802096486757
24 -0.000001925716401
25 0.000000331698143
26 0.10835596056286
27 0.16258901263193
28 0.065036014631825
29 -0.007306947990686
30 -0.008268090547994
31 -0.004944825579638
32 -0.10834802004952
33 -0.16257898695315
34 -0.065033264555461
35 -0.007305073819738
36 0.008269600061058
37 0.004944398315528
38 -0.000000375199459
39 -0.000000639148877
40 0.000001886297790
41 0.000003805007492
42 0.15566041657689
43 -0.000002595842329
44 0.000004625049413
45 0.24236251304259
46 -0.000003787854014
47 0.000007284590158
48 0.21103420014517
49 -0.000002601665047
50 0.000005146835010
51 0.000000044726212
52 -0.000000513660668
53 0.000000468934456
54 0.007955476733460
55 0.011945045444871
56 0.000000450359906
57 -0.000003862921300
58 -0.000006438488803
59 -0.000002067338435
60 0.016547111357314
61 0.000000902828608
62 -0.000000173891651
 Sym=      7.1
 Ene=      -0.5888
 Spin= Alpha
 Occup=    2.000000
1 -0.000535929218431
2 -0.001759802790892
3 0.007773072706675
4 -0.018577977290901
5 -0.000004351896653
6 0.10342391018119
7 -0.12522056029866
8 -0.000007190760372
9 0.16879375382177
10 -0.22205265010573
11 -0.000003033916805
12 0.12820723413057
13 -0.10405030838168
14 -0.007211117185466
15 -0.033305095614178
16 0.040516212799644
17 -0.000003895857274
18 0.000000267473328
19 0.004500009811807
20 -0.12274166897378
21 -0.16926690962800
22 -0.062176864262273
23 -0.000001386626543
24 -0.010390280622189
25 -0.001190404824342
26 0.002462327446939
27 0.003133179820579
28 0.000331539609990
29 -0.001913421747169
30 0.003335274512964
31 -0.005384118114357
32 0.002477126044034
33 0.003155813747171
34 0.000342456258987
35 0.001914733794098
36 0.003333976843180
37 -0.005384758634146
38 0.014838566135991
39 0.025127781823472
40 -0.075707659748961
41 -0.11216529340462
42 -0.000004672454630
43 0.058757824253227
44 0.18015658510372
45 -0.000007164262307
46 0.089803790165144
47 0.27914071255699
48 -0.000006882452230
49 0.083215401021405
50 0.22744247542548
51 -0.006668900215216
52 -0.005307433200346
53 0.011976333415562
54 -0.000000254624016
55 -0.000000340683659
56 0.017158187343538
57 -0.028868057326122
58 -0.033705753301260
59 -0.042352719601681
60 -0.000000561974792
61 0.010139523469291
62 0.018155875944658
 Sym=      8.1
 Ene=      -0.5001
 Spin= Alpha
 Occup=    2.000000
1 -0.004470984560484
2 -0.007780414753019
3 0.024589622077183
4 -0.017484959161206
5 0.000000197306391
6 -0.13973395823079
7 -0.040482697422333
8 0.000000984459989
9 -0.21678899498695
10 -0.076028301763143
11 0.000002312282017
12 -0.11839571806449
13 -0.012607237448854
14 -0.023661396716163
15 0.010375671242198
16 0.013285725473965
17 0.000003723995831
18 -0.000000684155353
19 -0.030706299305019
20 0.11646179260224
21 0.22193061292139
22 0.081729015390459
23 0.000001676069988
24 0.014093712293070
25 -0.009197031516710
26 -0.072880197514306
27 -0.12289484437188
28 -0.064346856464394
29 0.009967305035508
30 -0.004863058259738
31 0.001130908773085
32 -0.072893280128205
33 -0.12291803120300
34 -0.064358598705116
35 -0.009968741637350
36 -0.004860894018187
37 0.001131562228568
38 0.024876477588869
39 0.042289971108407
40 -0.12788615894756
41 -0.21777915174390
42 0.000006191693702
43 0.16497175181038
44 0.080828735088867
45 0.000009430852770
46 0.24483992776939
47 0.12028862220839
48 0.000009714182012
49 0.22779098845411
50 0.14009524397389
51 -0.010056008849383
52 0.009725536823992
53 0.000330472025391
54 0.000000354380813
55 0.000000245235792
56 0.000889943813416
57 0.083949175957402
58 0.15821971576456
59 0.033400675371117
60 0.000000998369792
61 -0.011983244299058
62 0.019012794707037
 Sym=      9.1
 Ene=      -0.4465
 Spin= Alpha
 Occup=    2.000000
1 0.000000189416818
2 0.000000305492577
3 -0.000000917077337
4 0.000001460317812
5 -0.10491494719934
6 0.000002180625698
7 0.000000440889714
8 -0.16163405226091
9 0.000004069928580
10 0.000000974693527
11 -0.081902371403394
12 0.000003876475753
13 0.000000012748823
14 -0.000001779973771
15 0.000002056176715
16 -0.000000276202944
17 -0.016371118579553
18 -0.037494007001798
19 0.000000341578675
20 0.000004840962204
21 0.000010375446997
22 0.000004456959218
23 -0.008254062974333
24 0.000001339781672
25 -0.000000271428978
26 -0.093661439014062
27 -0.19033092754674
28 -0.083706345370156
29 0.006955168055621
30 0.007959778826809
31 0.005576121071151
32 0.093658108477337
33 0.19032339688653
34 0.083704603413533
35 0.006953582082377
36 -0.007960891455590
37 -0.005575602808711
38 -0.000000251103770
39 -0.000000428296064
40 0.000001365394920
41 0.000001449440523
42 0.24797500714796
43 -0.000001435551457
44 -0.000001808737582
45 0.37230333906280
46 -0.000002145337470
47 -0.000002681607724
48 0.41361727134218
49 -0.000002712707156
50 -0.000003121226784
51 0.000000030007669
52 -0.000000015532293
53 -0.000000014475376
54 0.010786541330881
55 0.003814990831037
56 0.000000015584181
57 -0.000001183468009
58 -0.000001079936717
59 -0.000000558091150
60 0.026018419388966
61 0.000000195566571
62 -0.000000092666956
 Sym=     10.1
 Ene=       0.1537
 Spin= Alpha
 Occup=    0.000000
1 0.030627811711222
2 0.048744065890697
3 -0.019417358298243
4 -1.70309322115470
5 0.000002701340796
6 -0.020699712066586
7 -0.060082410410924
8 0.000002637534703
9 -0.015435710397150
10 -0.063469014705327
11 0.000019490363355
12 -0.15377355518675
13 -0.24176806802793
14 0.005042992380891
15 0.003101624983411
16 -0.008144617364303
17 -0.000000920769716
18 -0.000000047901682
19 0.006461300944640
20 0.002676202298518
21 0.046293992741640
22 0.44922121329055
23 0.000000381994739
24 0.005183009379422
25 -0.008759652986270
26 0.003797428386992
27 0.010539239761327
28 0.79628372401930
29 0.000539259722357
30 0.001918760504012
31 -0.006497260955679
32 0.003798377870825
33 0.010535673845166
34 0.79633649024348
35 -0.000539746615487
36 0.001919218534469
37 -0.006496954501206
38 0.019185472535344
39 0.031973732227015
40 -0.080669012939608
41 -0.34519115175870
42 -0.000000480672230
43 -0.049133343933380
44 0.031625659982302
45 -0.000000420524422
46 -0.068016137337984
47 0.024393763752605
48 -0.000002634560047
49 -0.12909254729323
50 0.20859999528068
51 0.000516149778648
52 -0.002033393191410
53 0.001517243412762
54 -0.000000072634333
55 0.000000140444821
56 -0.001555937801832
57 0.030060258190566
58 -0.10063008444691
59 0.91276622187678
60 -0.000000149713544
61 0.010732731911675
62 -0.008170406174867
 Sym=     11.1
 Ene=       0.1883
 Spin= Alpha
 Occup=    0.000000
1 -0.035719920837448
2 -0.058047289199839
3 0.088075723744435
4 1.23146735555449
5 0.000001231280664
6 -0.025573835423881
7 0.006779066476429
8 -0.000000066089325
9 -0.013278389016782
10 -0.019030171587274
11 0.000009232471746
12 -0.26930771454042
13 0.16518612241198
14 0.000937659655415
15 0.004303363284292
16 -0.005241022939706
17 -0.000000559907191
18 -0.000000218898126
19 0.005843615933200
20 -0.013382984082585
21 0.076275116443335
22 -1.06425439796863
23 0.000000471333561
24 0.007285163398715
25 -0.008963334517506
26 -0.013130486891004
27 0.076038755818784
28 -0.58012458441879
29 -0.003615444799105
30 0.002063948569560
31 -0.008111890438211
32 -0.013129775297641
33 0.076036219654365
34 -0.58005040491877
35 0.003614404567850
36 0.002064272281169