
 Working directory              : /tmp/lme/molpro.CflHXR158L/
 Global scratch directory       : /tmp/lme/molpro.CflHXR158L/
 Wavefunction directory         : /home/lme/wfu/
 Main file repository           : /tmp/lme/molpro.CflHXR158L/

 id        : liedlgroup

 Nodes     nprocs
 sv1-c724     6
 GA implementation: MPI file
 GA implementation (serial work in mppx): MPI file

 Using customized tuning parameters: mindgm=1; mindgv=20; mindgc=4; mindgr=1; noblas=0; minvec=7
 default implementation of scratch files=sf  


 Variables initialized (1025), CPU time= 0.00 sec
 memory, 200, m                                                                  ! Memory Requirements
 gthresh, optgrad=1.d-7,twoint=1.d-14,prefac=1.d-16                            ! Guntram Rezept um numerischen Schmutz zu entfernen
 orient,mass
 geometry = {
  H,    0.7493682,    0.0000000,    0.4424329
  O,    0.0000000,    0.0000000,   -0.1653507
  H,   -0.7493682,    0.0000000,    0.4424329
 }
 
 mass, iso
 basis=6-311g(d,p)
 
 {hf
 start,atden}
 
 CCSD
 
 optg
 {frequencies, symm=auto, print=0,analytical}
 put,molden,h2o_ccsd.molden
 Commands initialized (840), CPU time= 0.01 sec, 684 directives.
 Default parameters read. Elapsed time= 0.07 sec

 Checking input...
 Passed
1


                                         ***  PROGRAM SYSTEM MOLPRO  ***
                                       Copyright, TTI GmbH Stuttgart, 2015
                                    Version 2022.3 linked Wed Nov 30 12:40:34 2022


 **********************************************************************************************************************************
 LABEL *                                                                                 
  (6 PROC) 64 bit mpp version                                                            DATE: 25-Aug-25          TIME: 22:03:55  
 **********************************************************************************************************************************

 SHA1:             e31ec9a5ea85254ab76f59d122cbdd51c71cf98b
 **********************************************************************************************************************************

 Memory per process:       200 MW
 Total memory per node:   1200 MW

 GA preallocation disabled
 GA check disabled

 Variable memory set to 200.0 MW


 THRESHOLDS:

 ZERO    =  1.00D-12  ONEINT  =  1.00D-12  TWOINT  =  1.00D-14  PREFAC  =  1.00D-16  XXXXXX  =  1.00D-09  EORDER  =  1.00D-04
 ENERGY  =  0.00D+00  ETEST   =  0.00D+00  EDENS   =  0.00D+00  THRDEDEF=  1.00D-06  GRADIENT=  1.00D-05  STEP    =  1.00D-03
 ORBITAL =  1.00D-05  CIVEC   =  1.00D-05  COEFF   =  1.00D-04  PRINTCI =  5.00D-02  PUNCHCI =  9.90D+01  OPTGRAD =  1.00D-07
 OPTENERG=  1.00D-06  OPTSTEP =  3.00D-04  THRGRAD =  1.00D-10  COMPRESS=  1.00D-11  VARMIN  =  1.00D-07  VARMAX  =  1.00D-03
 THRDOUB =  0.00D+00  THRDIV  =  1.00D-05  THRRED  =  1.00D-07  THRPSP  =  1.00D+00  THRDC   =  1.00D-10  THRCS   =  1.00D-10
 THRNRM  =  1.00D-08  THREQ   =  0.00D+00  THRDE   =  1.00D+00  THRREF  =  1.00D-05  SPARFAC =  1.00D+00  THRDLP  =  1.00D-07
 THRDIA  =  1.00D-10  THRDLS  =  1.00D-07  THRGPS  =  0.00D+00  THRKEX  =  0.00D+00  THRDIS  =  2.00D-01  THRVAR  =  1.00D-10
 THRLOC  =  1.00D-06  THRGAP  =  1.00D-06  THRLOCT = -1.00D+00  THRGAPT = -1.00D+00  THRORB  =  1.00D-06  THRMLTP =  0.00D+00
 THRCPQCI=  1.00D-10  KEXTA   =  0.00D+00  THRCOARS=  0.00D+00  SYMTOL  =  1.00D-06  GRADTOL =  1.00D-06  THROVL  =  1.00D-08
 THRORTH =  1.00D-08  THRDLOVL= -1.00D+00  GRID    =  1.00D-06  GRIDMAX =  1.00D-03  DTMAX   =  0.00D+00  THROCCDE=  1.00D-01
 THROCCDE=  1.00D-01  THRPRINT=  2.50D-01

 ZCENTRE=MASS


 Geometry recognized as XYZ



 Using masses of most abundant isotopes

 **********************************************************************************************************************************
 SETTING BASIS          =    6-311G(D,P)


 Recomputing integrals since basis changed


 Using spherical harmonics

 Library entry H      S 6-311G               selected for orbital group  1
 Library entry H      P 6-311G**             selected for orbital group  1
 Library entry O      S 6-311G               selected for orbital group  2
 Library entry O      P 6-311G               selected for orbital group  2
 Library entry O      D 6-311G*              selected for orbital group  2


 PROGRAM * SEWARD (Integral evaluation for generally contracted gaussian basis sets)     Author: Roland Lindh, 1990

 Geometry written to block  1 of record 700

 Orientation using atomic masses  
 Molecule type: Asymmetric top,     Order of principal axis = 2
 Symmetry elements: X,Y
 Rotational constants:     281.8391796    764.2747781    446.4898054 GHz

 Point group  C2v 



 ATOMIC COORDINATES

 NR  ATOM    CHARGE       X              Y              Z

   1  H       1.00    0.000000000    1.416100665    1.020005300
   2  H       1.00    0.000000000   -1.416100665    1.020005300
   3  O       8.00    0.000000000    0.000000000   -0.128539247

 Bond lengths in Bohr (Angstrom)

 1-3  1.823319958  2-3  1.823319958
     ( 0.964859370)     ( 0.964859370)

 Bond angles

  1-3-2  101.91165288

 NUCLEAR CHARGE:                   10
 NUMBER OF PRIMITIVE AOS:          48
 NUMBER OF SYMMETRY AOS:           47
 NUMBER OF CONTRACTIONS:           30   (   14A1  +    5B1  +    9B2  +    2A2  )
 NUMBER OF INNER CORE ORBITALS:     0   (    0A1  +    0B1  +    0B2  +    0A2  )
 NUMBER OF OUTER CORE ORBITALS:     1   (    1A1  +    0B1  +    0B2  +    0A2  )
 NUMBER OF VALENCE ORBITALS:        6   (    3A1  +    1B1  +    2B2  +    0A2  )


 NUCLEAR REPULSION ENERGY    9.12828373

 Eigenvalues of metric

         1 0.182E-01 0.902E-01 0.115E+00 0.147E+00 0.292E+00 0.447E+00 0.611E+00 0.820E+00
         2 0.215E+00 0.458E+00 0.907E+00 0.120E+01 0.227E+01
         3 0.422E-01 0.986E-01 0.128E+00 0.392E+00 0.553E+00 0.846E+00 0.122E+01 0.154E+01
         4 0.659E+00 0.129E+01


 Contracted 2-electron integrals neglected if value below      1.0D-14
 AO integral compression algorithm  1   Integral accuracy      1.0D-14

     1.573 MB (compressed) written to integral file (100.0%)

     Node minimum: 0.262 MB, node maximum: 0.262 MB


 NUMBER OF SORTED TWO-ELECTRON INTEGRALS:       4884.     BUFFER LENGTH:  32768
 NUMBER OF SEGMENTS:   1  SEGMENT LENGTH:       4884      RECORD LENGTH: 524288

 Memory used in sort:       0.56 MW

 SORT1 READ       47899. AND WROTE        4383. INTEGRALS IN      1 RECORDS. CPU TIME:     0.02 SEC, REAL TIME:     0.02 SEC
 SORT2 READ       30106. AND WROTE       32916. INTEGRALS IN      6 RECORDS. CPU TIME:     0.00 SEC, REAL TIME:     0.00 SEC

 Node minimum:        4832.  Node maximum:        6144. integrals

 OPERATOR DM      FOR CENTER  0  COORDINATES:    0.000000    0.000000    0.000000


 **********************************************************************************************************************************
 DATASETS  * FILE   NREC   LENGTH (MB)   RECORD NAMES
              1      18       28.60       500      610      700      900      950      970     1000      129      960     1100   
                                          VAR    BASINP    GEOM    SYMINP    ZMAT    AOBASIS   BASIS     P2S    ABASIS      S 
                                         1400     1410     1200     1210     1080     1600     1650     1700   
                                           T        V       H0       H01     AOSYM     SMH    MOLCAS    OPER   

 PROGRAMS   *        TOTAL       INT
 CPU TIMES  *         0.35      0.23
 REAL TIME  *         0.44 SEC
 DISK USED  *        28.89 MB (local),      197.64 MB (total)
 GA USED    *         0.00 MB       (max)       0.00 MB       (current)
 **********************************************************************************************************************************


 Program * Restricted Hartree-Fock

 Orbital guess generated from atomic densities.

 Initial occupancy:   3   1   1   0

 NELEC=   10   SYM=1   MS2= 0   THRE=1.0D-08   THRD=1.0D-06   THRG=1.0D-06  HFMA2=F  DIIS_START=2   DIIS_MAX=10   DIIS_INCORE=F

 Level shifts:    0.00 (CLOSED)    0.00 (OPEN)    0.30 (GAP_MIN)

 ITER           ETOT              DE          GRAD        DDIFF     DIIS  NEXP   TIME(IT)  TIME(TOT)  DIAG
   1      -76.00566839     -76.00566839     0.00D+00     0.15D+00     0     0       0.00      0.00    start
   2      -76.03579839      -0.03013001     0.33D-01     0.25D-01     1     0       0.00      0.00    diag
   3      -76.04538732      -0.00958893     0.19D-01     0.83D-02     2     0       0.00      0.00    diag
   4      -76.04560181      -0.00021449     0.20D-02     0.15D-02     3     0       0.00      0.00    diag
   5      -76.04562339      -0.00002158     0.54D-03     0.62D-03     4     0       0.01      0.01    diag
   6      -76.04562412      -0.00000073     0.87D-04     0.10D-03     5     0       0.00      0.01    diag
   7      -76.04562414      -0.00000002     0.15D-04     0.19D-04     6     0       0.00      0.01    diag
   8      -76.04562414      -0.00000000     0.17D-05     0.24D-05     7     0       0.00      0.01    fixocc
   9      -76.04562414      -0.00000000     0.14D-06     0.32D-06     8     0       0.00      0.01    diag
  10      -76.04562414      -0.00000000     0.23D-07     0.37D-07     0     0       0.00      0.01    diag/orth

 Final occupancy:   3   1   1   0

 !RHF STATE 1.1 Energy                -76.045624140596
  RHF One-electron energy            -123.026544740897
  RHF Two-electron energy              37.852636872311
  RHF Kinetic energy                   76.033209807746
  RHF Nuclear energy                    9.128283727990
  RHF Virial quotient                  -1.000163275138

 !RHF STATE 1.1 Dipole moment           0.00000000     0.00000000     0.86966284
 Dipole moment /Debye                   0.00000000     0.00000000     2.21046246

 Orbital energies:

           1.1          2.1          3.1          4.1          5.1
    -20.547738    -1.339565    -0.575739     0.148652     0.616281

           1.2          2.2          3.2
     -0.500192     1.003349     1.700467

           1.3          2.3          3.3
     -0.697402     0.216514     0.558138

           1.4          2.4
      1.522025     3.534487


 HOMO      1.2    -0.500192 =     -13.6109eV
 LUMO      4.1     0.148652 =       4.0450eV
 LUMO-HOMO         0.648844 =      17.6560eV

 Orbitals saved in record  2100.2


 **********************************************************************************************************************************
 DATASETS  * FILE   NREC   LENGTH (MB)   RECORD NAMES
              1      18       28.60       500      610      700      900      950      970     1000      129      960     1100   
                                          VAR    BASINP    GEOM    SYMINP    ZMAT    AOBASIS   BASIS     P2S    ABASIS      S 
                                         1400     1410     1200     1210     1080     1600     1650     1700   
                                           T        V       H0       H01     AOSYM     SMH    MOLCAS    OPER   

              2       4        0.38       700     1000      520     2100   
                                         GEOM     BASIS   MCVARS     RHF  

 PROGRAMS   *        TOTAL    HF-SCF       INT
 CPU TIMES  *         0.37      0.01      0.23
 REAL TIME  *         0.45 SEC
 DISK USED  *        29.04 MB (local),      198.59 MB (total)
 GA USED    *         0.00 MB       (max)       0.00 MB       (current)
 **********************************************************************************************************************************


 PROGRAM * CCSD (Closed-shell coupled cluster)     Authors: C. Hampel, H.-J. Werner, 1991, M. Deegan, P.J. Knowles, 1992


 Convergence thresholds:  THRVAR = 1.00D-12  THRDEN = 1.00D-08

 Using ITF CCSD gradient implementation

 Number of core orbitals:           1 (   1   0   0   0 )
 Number of closed-shell orbitals:   4 (   2   1   1   0 )
 Number of external orbitals:      25 (  11   4   8   2 )

 Molecular orbitals read from record     2100.2  Type=RHF/CANONICAL  

 Integral transformation finished. Total CPU:   0.00 sec, npass=  1  Memory used:   0.08 MW
  Reference energy                    -76.045624140596

  MP2 correlation energy               -0.218251806151
  MP2 total energy                    -76.263875946747

 ITER.      SQ.NORM     CORR.ENERGY   TOTAL ENERGY   ENERGY CHANGE        DEN1      VAR(S)    VAR(P)  DIIS     TIME
   1      1.05432055    -0.22490114   -76.27052528    -0.00664933    -0.00221860  3.78e-04  7.44e-04  1  1     0.01
   2      1.05722732    -0.22554133   -76.27116547    -0.00064019    -0.00387332  1.80e-05  1.03e-04  2  2     0.02
   3      1.05819104    -0.22569548   -76.27131962    -0.00015415    -0.00077565  1.23e-06  1.61e-05  3  3     0.02
   4      1.05873222    -0.22570732   -76.27133146    -0.00001184    -0.00047204  2.70e-08  1.13e-06  4  4     0.03
   5      1.05885792    -0.22570162   -76.27132576     0.00000570    -0.00009157  1.14e-08  6.86e-08  5  5     0.03
   6      1.05888103    -0.22570039   -76.27132453     0.00000123    -0.00001587  2.57e-11  2.23e-09  6  0     0.04
   7      1.05888249    -0.22570015   -76.27132429     0.00000024    -0.00000123  6.69e-12  1.12e-10  6  1     0.05
   8      1.05888252    -0.22570014   -76.27132428     0.00000001    -0.00000006  3.34e-14  7.01e-12  6  2     0.05
   9      1.05888250    -0.22570014   -76.27132428    -0.00000000     0.00000000  1.00e-14  3.66e-13           0.06
 WARNING: Named clock 3265 does not exist. Cannot pop it.

 Norm of t1 vector:      0.02522561     S-energy:      0.00000000   T1 diagnostic:  0.00630640

 Time per iteration:                      0.01 sec

 RESULTS
 =======

  Reference energy                    -76.045624140596
  CCSD correlation energy              -0.225700137958
 !CCSD total energy                   -76.271324278554

 Starting CP-CCSD iterations.   Author: W. Gyorffy (2012)

 ITER.      NRM1           NRM2      VAR(S)+VAR(P)   DIIS    TIME
   1     0.00046239     0.17203141     7.86e-05      1  1    0.01
   2     0.00043066     0.17132584     3.04e-06      2  2    0.02
   3     0.00041673     0.17126551     3.37e-07      3  3    0.03
   4     0.00041007     0.17125941     4.32e-08      4  4    0.04
   5     0.00040741     0.17126554     6.85e-09      5  5    0.05
   6     0.00040627     0.17126802     7.13e-10      6  0    0.05
   7     0.00040585     0.17126763     2.87e-11      6  1    0.06
   8     0.00040580     0.17126702     2.34e-12      6  2    0.07
   9     0.00040578     0.17126681     5.00e-14              0.07

 WARNING: Named clock 3265 does not exist. Cannot pop it.

 Time per iteration:                      0.01 sec

 CPHF start vector      0.2 not found

 Starting Coupled-perturbed Hartree-Fock, convergence threshold= 1.0D-06

 ITER   MIC  DIIS      VAR         VARC       CPU
   1     0     1    0.15D-02    0.55D-03     0.00
   2     4     2    0.61D-04    0.71D-05     0.00
   3     4     3    0.89D-06    0.43D-06     0.00

 CPHF convergence reached in  3 macroiterations and    8 microiterations.   Accuracy: 8.9285D-07

 CPHF solution written to record  8500.2

 Dipole moments (unrelaxed):            0.00000000     0.00000000     0.82226008
 Orbital relaxation contribution:      -0.00000000    -0.00000000     0.00157169
 !CCSD STATE 1.1 Dipole moment          0.00000000     0.00000000     0.82383177
 Dipole moment /Debye                   0.00000000     0.00000000     2.09397148

 CPU-time for coupled-perturbed hartree-fock:          0.00 sec

 Number of N-1 electron functions:               4
 Number of N-2 electron functions:              10
 Number of singly external CSFs:                34
 Number of doubly external CSFs:              1397
 Total number of CSFs:                        1432

 CCSD gradient info saved on record        55555.1




 **********************************************************************************************************************************
 DATASETS  * FILE   NREC   LENGTH (MB)   RECORD NAMES
              1      20       28.87       500      610      700      900      950      970     1000      129      960     1100   
                                          VAR    BASINP    GEOM    SYMINP    ZMAT    AOBASIS   BASIS     P2S    ABASIS      S 
                                         1400     1410     1200     1210     1080     1600     1650     1700     1380    55555   
                                           T        V       H0       H01     AOSYM     SMH    MOLCAS    OPER     JKOP     CCSD   

              2       5        0.39       700     1000      520     2100     8500   
                                         GEOM     BASIS   MCVARS     RHF     CPHF   

 PROGRAMS   *        TOTAL      CCSD    HF-SCF       INT
 CPU TIMES  *         0.58      0.20      0.01      0.23
 REAL TIME  *         0.70 SEC
 DISK USED  *        29.31 MB (local),      200.18 MB (total)
 SF USED    *         1.50 MB
 GA USED    *         0.00 MB       (max)       0.00 MB       (current)
 **********************************************************************************************************************************


 PROGRAM * OPT (Geometry optimization)     Authors: F. Eckert and H.-J. Werner


 BFGS update of hessian

 *** Long output written to logfile /home/lme/overlap_integral_gaussian/molpro_files/h2o/ccsd/h2o_ccsd.log ***


 Geometry optimization using default procedure for command CCSD

 Geometry written to block  1 of record 700

 Entering BMAT geometry-optimization, modelhes=F
 Optimization method: RF

 ITER.   ENERGY(OLD)    ENERGY(NEW)      DE          GRADMAX     GRADNORM    GRADRMS     STEPMAX     STEPLEN     STEPRMS   CPU-time
   1   -76.27132428   -76.27143640    -0.00011212  0.01052236  0.01480852  0.00493617  0.00888388  0.01459870  0.00842857      0.55
   2   -76.27143640   -76.27144117    -0.00000477  0.00122997  0.00159010  0.00053003  0.00315545  0.00566224  0.00326910      1.03
   3   -76.27144117   -76.27144140    -0.00000024  0.00015734  0.00028610  0.00009537  0.00096093  0.00164302  0.00094860      1.50
   4   -76.27144140   -76.27144140    -0.00000000  0.00000113  0.00000152  0.00000051  0.00000402  0.00000740  0.00000427      1.95
   5   -76.27144140   -76.27144140    -0.00000000  0.00000001  0.00000001  0.00000000  0.00000001  0.00000001  0.00000001      2.44

 END OF GEOMETRY OPTIMIZATION.

 Geometry written to block  1 of record 700

 Recomputing wavefunction for reoriented structure

 Current geometry (xyz format, in Angstrom)

    3
 CCSD/6-311G(D,P)  ENERGY=-76.27144140
 H          0.0000000000        0.7477852659        0.5307424072
 O          0.0000000000        0.0000000000       -0.0668832105
 H          0.0000000000       -0.7477852659        0.5307424072

 **********************************************************************************************************************************


 **********************************************************************************************************************************
 DATASETS  * FILE   NREC   LENGTH (MB)   RECORD NAMES
              1      20       28.87       500      610      700      900      950      970     1000      129      960     1100   
                                          VAR    BASINP    GEOM    SYMINP    ZMAT    AOBASIS   BASIS     P2S    ABASIS      S 
                                         1400     1410     1200     1210     1080     1600     1650     1700     1380    55555   
                                           T        V       H0       H01     AOSYM     SMH    MOLCAS    OPER     JKOP     CCSD   

              2       6        0.40       700     1000      520     2100     8500     9001   
                                         GEOM     BASIS   MCVARS     RHF     CPHF    DEN_MP2    

 PROGRAMS   *        TOTAL      OPTG      CCSD    HF-SCF       INT
 CPU TIMES  *         3.41      2.82      0.20      0.01      0.23
 REAL TIME  *         3.41 SEC
 DISK USED  *        29.32 MB (local),      200.24 MB (total)
 SF USED    *         1.50 MB
 GA USED    *         0.00 MB       (max)       0.00 MB       (current)
 **********************************************************************************************************************************


 PROGRAM * HESSIAN

 Computing numerical hessian using default procedure for command CCSD

 Symmetry elements for unique displacements: X  Y  

 Using AUTO symmetry option

 Running default procedure: HF-SCF000  CCSD


 Numerically approximating hessian using central gradient differences

 Task list generated. Total number of displacements:      9


 Switching to mppx mode, nproc=  6

 All   9 tasks completed.  CPU=      9.43 sec, Elapsed=      4.29 sec.

 Switching back to mpp mode, nproc=  6


 CCSD hessian saved to record  5300.2

 PROGRAM * FREQUENCIES (Calculation of harmonic vibrational spectra for CCSD)


 Permanent Dipole Moment [debye]
 1-3    0.000000    0.000000    2.080635

 Dipole Moment Norm    2.0806351 [debye]

 Dipole Moment Derivatives [debye/ang]
              1             2             3             4             5             6             7             8
    1    1.74067386    0.00000000    0.00000000   -3.48137369    0.00000000    0.00000000    1.74067386    0.00000000
    2    0.00000000    1.02586171   -0.57132583    0.00000000   -2.05166430    0.00000000    0.00000000    1.02586171
    3    0.00000000   -0.28877230    0.71352834    0.00000000    0.00000000   -1.42709601    0.00000000    0.28877230
              9
    1    0.00000000
    2    0.57132583
    3    0.71352834

 Projecting out rotations and translations

 Force Constants (Second Derivatives of the Energy) in [a.u.]
                             HX1         HY1         HZ1         OX2         OY2     
           HX1           0.0000000
           HY1           0.0000000   0.3797144
           HZ1           0.0000000   0.2445174   0.2329302
           OX2           0.0000000   0.0000000   0.0000000  -0.0000000
           OY2           0.0000000  -0.3454162  -0.2760546   0.0000000   0.6908324
           OZ2           0.0000000  -0.2129801  -0.2452391   0.0000000   0.0000000
           HX3          -0.0000000   0.0000000   0.0000000   0.0000000   0.0000000
           HY3           0.0000000  -0.0342982   0.0315372   0.0000000  -0.3454162
           HZ3           0.0000000  -0.0315372   0.0123089   0.0000000   0.2760546
                             OZ2         HX3         HY3         HZ3     
           OZ2           0.4904782
           HX3           0.0000000   0.0000000
           HY3           0.2129801   0.0000000   0.3797144
           HZ3          -0.2452391   0.0000000  -0.2445174   0.2329302


 Atomic Masses
 1-3    1.007825   15.994910    1.007825

 Mass weighted Second Derivative Matrix
                             HX1         HY1         HZ1         OX2         OY2     
           HX1           0.0000000
           HY1           0.0000000   0.3767662
           HZ1           0.0000000   0.2426189   0.2311216
           OX2           0.0000000   0.0000000   0.0000000  -0.0000000
           OY2           0.0000000  -0.0860318  -0.0687561   0.0000000   0.0431908
           OZ2           0.0000000  -0.0530464  -0.0610810   0.0000000   0.0000000
           HX3          -0.0000000   0.0000000   0.0000000   0.0000000   0.0000000
           HY3           0.0000000  -0.0340319   0.0312924   0.0000000  -0.0860318
           HZ3           0.0000000  -0.0312924   0.0122134   0.0000000   0.0687561
                             OZ2         HX3         HY3         HZ3     
           OZ2           0.0306646
           HX3           0.0000000   0.0000000
           HY3           0.0530464   0.0000000   0.3767662
           HZ3          -0.0610810   0.0000000  -0.2426189   0.2311216


 Mass Weighted 2nd Derivative Matrix Eigenvalues
 1-9    0.000000    0.000000    0.000000    0.000000    0.000000    0.000000    0.107952    0.576845    0.604833

 Mass Weighted 2nd Derivative Matrix Eigenvectors
              1             2             3             4             5             6             7             8
    1    0.00000000    1.00000000    0.00000000    0.00000000    0.00000000    0.00000000    0.00000000    0.00000000
    2    0.18591277    0.00000000   -0.03811642   -0.41536462    0.08719762   -0.02286597   -0.42078858    0.56827543
    3   -0.19357531    0.00000000    0.04002890    0.44700435    0.05824000    0.36429819    0.53553292    0.39654387
    4    0.88940791    0.00000000   -0.19939018    0.41017749   -0.03060010   -0.00389841    0.00000000    0.00000000
    5    0.15449217    0.00000000   -0.03185513   -0.35572496   -0.18027138    0.86294266    0.00000000    0.00000000
    6   -0.03774236    0.00000000    0.00932452    0.15538238    0.89224438    0.25754602   -0.26885482   -0.19907783
    7    0.21579621    0.00000000    0.97641403    0.00655880   -0.00212288   -0.00032979    0.00000000    0.00000000
    8    0.18591277    0.00000000   -0.03811642   -0.41536462    0.08719762   -0.02286597    0.42078858   -0.56827543
    9    0.17462743    0.00000000   -0.03534769   -0.36899737    0.38969549   -0.23500177    0.53553292    0.39654387
              9
    1    0.00000000
    2    0.53228708
    3    0.42540073
    4    0.00000000
    5   -0.26722531
    6    0.00000000
    7    0.00000000
    8    0.53228708
    9   -0.42540073

   Low Vibration      Wavenumber
        Nr             [1/cm] 
        1                0.00
        2                0.00
        3                0.00
        4                0.00
        5                0.00
        6                0.00

     Vibration        Wavenumber
        Nr             [1/cm] 
        1             1688.96
        2             3904.22
        3             3997.81

 FREQUENCIES * CALCULATION OF NORMAL MODES FOR CCSD


 Atomic Coordinates

  Nr  Atom  Charge       X              Y              Z

   1   H     1.00    0.000000000    1.413109353    1.002957792
   2   O     8.00    0.000000000    0.000000000   -0.126390950
   3   H     1.00    0.000000000   -1.413109353    1.002957792

 Gradient norm at reference geometry: 0.25659D-07

 Normal Modes

                              1 A1        2 A1        3 B2 
 Wavenumbers [cm-1]         1688.96     3904.22     3997.81
 Intensities [km/mol]         51.06        4.00       23.19
 Intensities [relative]      100.00        7.84       45.41
           HX1             -0.00000    -0.00000     0.00000
           HY1             -0.41915     0.56607     0.53022
           HZ1              0.53345     0.39500     0.42375
           OX2              0.00000    -0.00000     0.00000
           OY2             -0.00000    -0.00000    -0.06682
           OZ2             -0.06722    -0.04978     0.00000
           HX3              0.00000     0.00000    -0.00000
           HY3              0.41915    -0.56607     0.53022
           HZ3              0.53345     0.39500    -0.42375


 Normal Modes of low/zero frequencies

                                  1           2           3           4           5
 Wavenumbers [cm-1]            0.00        0.00        0.00        0.00        0.00
 Intensities [km/mol]          0.00        0.00        0.00        0.00        0.00
 Intensities [relative]        0.00        0.00        0.00        0.00        0.00
           HX1              0.00000     0.99611    -0.00000     0.00000    -0.00000
           HY1              0.18519    -0.00000    -0.03797    -0.41375     0.08686
           HZ1             -0.19282     0.00000     0.03987     0.44527     0.05801
           OX2              0.22239    -0.00000    -0.04986     0.10256    -0.00765
           OY2              0.03863    -0.00000    -0.00797    -0.08895    -0.04508
           OZ2             -0.00944     0.00000     0.00233     0.03885     0.22310
           HX3              0.21496     0.00000     0.97262     0.00653    -0.00211
           HY3              0.18519    -0.00000    -0.03797    -0.41375     0.08686
           HZ3              0.17395    -0.00000    -0.03521    -0.36756     0.38818

                                  6
 Wavenumbers [cm-1]            0.00
 Intensities [km/mol]          0.00
 Intensities [relative]        0.00
           HX1             -0.00000
           HY1             -0.02278
           HZ1              0.36288
           OX2             -0.00097
           OY2              0.21577
           OZ2              0.06440
           HX3             -0.00033
           HY3             -0.02278
           HZ3             -0.23409


 Frequencies dumped to record   5400.2

 Zero point energy:  0.02184989 [H]     4795.50 [1/CM]       57.37 [KJ/MOL]
 Frequency information read from record  5400.2

 Recomputing wavefunction at initial geometry


 **********************************************************************************************************************************
 DATASETS  * FILE   NREC   LENGTH (MB)   RECORD NAMES
              1      20       28.87       500      610      700      900      950      970     1000      129      960     1100   
                                          VAR    BASINP    GEOM    SYMINP    ZMAT    AOBASIS   BASIS     P2S    ABASIS      S 
                                         1400     1410     1200     1210     1080     1600     1650     1700     1380    55555   
                                           T        V       H0       H01     AOSYM     SMH    MOLCAS    OPER     JKOP     CCSD   

              2       9        0.41       700     1000      520     2100     8500     9001     5300     5450     5400   
                                         GEOM     BASIS   MCVARS     RHF     CPHF    DEN_MP2   HESS     NMOD     FREQ   

 PROGRAMS   *        TOTAL      FREQ      OPTG      CCSD    HF-SCF       INT
 CPU TIMES  *        13.00      9.59      2.82      0.20      0.01      0.23
 REAL TIME  *         8.06 SEC
 DISK USED  *        36.55 MB (local),      233.24 MB (total)
 SF USED    *         1.50 MB
 GA USED    *         0.00 MB       (max)       0.00 MB       (current)
 **********************************************************************************************************************************

 Dump information in style MOLDEN to h2o_ccsd.molden                                                                 

 Molecular orbitals read from record     2100.2  Type=RHF/CANONICAL (state 1.1)
 Occupation numbers read from record     2100.2  Type=RHF/RHF (state 1.1)
 Orbital energies read from record       2100.2  Type=RHF/CANONICAL (state 1.1)
 Redundancy group numbers read from rec  2100.2  Type=RHF/RHF (state 1.1)

 DUMP ORBITAL  1.1 AS ORBITAL    1  occ=    2.0000  eig=  -20.5459  GROUP=   2
 DUMP ORBITAL  2.1 AS ORBITAL    2  occ=    2.0000  eig=   -1.3428  GROUP=   2
 DUMP ORBITAL  1.3 AS ORBITAL    3  occ=    2.0000  eig=   -0.7030  GROUP=   2
 DUMP ORBITAL  3.1 AS ORBITAL    4  occ=    2.0000  eig=   -0.5755  GROUP=   2
 DUMP ORBITAL  1.2 AS ORBITAL    5  occ=    2.0000  eig=   -0.5004  GROUP=   2

 Total charge:      10.000000
 Frequency information read from record  5400.2

 **********************************************************************************************************************************

 CCSD/6-311G(D,P) energy=    -76.271441403703

      OPTG(CCSD)            CCSD          HF-SCF
    -76.27144140    -76.27132428    -76.04562414
 **********************************************************************************************************************************
 Molpro calculation terminated
