[Molden Format]
[Molpro variables]
_NUMVAR=  1031.000000000000    
_AVOGAD= 0.6022140760000000E+24
_BOLTZ= 0.1380649000000000E-22
_CLIGHTSI=  299792458.0000000    
_JOULE= 0.4359744722207100E-17
_JPCAL=  4.184000000000000    
_PLANCK= 0.6626070150000000E-33
_BOHR= 0.5291772109030000E-10
_ECHARG= 0.1602176634000000E-18
_ENULL= 0.8854187812800001E-11
_MU= 0.1660539066600000E-26
_EMASS= 0.9109383701500001E-30
_AMU2AU=  1822.888486217313    
_CLIGHT=  29979245800.00000    
_EV= 0.3674932217565494E-01
_KJOULE= 0.3808798847133432E-03
_KJOULE/MOL= 0.3808798847133432E-03
_CM= 0.4556335252912009E-05
_CM-1= 0.4556335252912009E-05
_DEB2SI= 0.3335640951981520E-29
_KCAL= 0.1593601437640628E-02
_KCAL/MOL= 0.1593601437640628E-02
_KELVIN= 0.3166811563455608E-05
_HERTZ= 0.1519829846057038E-15
_HZ= 0.1519829846057038E-15
_TOA= 0.5291772109030000    
_TOANG= 0.5291772109030000    
_TORAD= 0.1745329251994330E-01
_TOCM=  219474.6313631965    
_TODEBYE=  2.541746473194078    
_TOE= 0.4803204712570263E-09
_TOEV=  27.21138624598803    
_TOHERTZ=  6579683920501656.    
_TOHZ=  6579683920501656.    
_TOK=  315775.0248040668    
_TOKCAL=  627.5094740630558    
_TOKELVIN=  315775.0248040668    
_TOKJ=  2625.499639479825    
_TOKJOULE=  2625.499639479825    
_TOKG= 0.1660539066600000E-26
_ANG=  1.889726124625770    
_ANGSTROM=  1.889726124625770    
_RPAREF=  0.000000000000000    
_RPADISS=  0.000000000000000    
_IGNORE_UNDEF=  2.000000000000000    
_STRICTCHECK=  0.000000000000000    
!SEWARD=  0.000000000000000    
!MULTI=  0.000000000000000    
!DFMULTI=  0.000000000000000    
_SEW_ONEEL=  0.000000000000000    
_CPPDONE=FALSE
_DKROLL_DONE=  0.000000000000000    
_FNUC_DONE=  0.000000000000000    
_FOCKDONE=TRUE
_GRADONE=FALSE
_HESSDONE=TRUE
_INTDONE=TRUE
_SCFDONE=TRUE
_MODUL_BLOCK=FALSE
_MODUL_CUDA=FALSE
_MODUL_SLATER=FALSE
_MODUL_MRCC=FALSE
_MODUL_NBO6=FALSE
_MODUL_NECI=FALSE
_MODUL_AIMS=TRUE
_MODUL_GECCO=FALSE
_ISWINDOWS=FALSE
_MRCC_EXEC=
_FITC_AO_SAVED=FALSE
_FITC_MO_SAVED=FALSE
_SHARED_FS=TRUE
_LSTYP=SEWARD
_INTYP=INTS
_GEOMTYP=ZMAT
_GRADTYP=ALASKA
_DIRECT=FALSE
_DKHO= -1.000000000000000    
_FNUC=  0.000000000000000    
_SYNCM=  0.000000000000000    
_DFTNAME=B3LYP
_DFTFUNC=B88
_BASIS=6-311G(D,P)
_ZCENTRE=MASS
_ZORIENT=  1.000000000000000    
_NELEC=  10.00000000000000    
!SPIN=  0.000000000000000    
_OPTCONV= 0.1829069899758066E-03
_QSDSTEP=  0.000000000000000    
_QSDIRC=  0.000000000000000    
_PROGRAM=FREQ
_CPUSTEP=  0.000000000000000    
_SYSSTEP=  0.000000000000000    
_WALLSTEP=  0.000000000000000    
!DFSCF=  0.000000000000000    
!SCSGRD=  0.000000000000000    
_CPUTOT=  30.85000000000000    
_CPUSORT= 0.2000000000000313E-01
_SYSSORT= 0.1000000000000001E-01
_WALLSORT= 0.3000000119209290E-01
_DFTEXFAC= 0.2000000000000000    
_DFTFAC= 0.7200000000000000    
_DFTFUN= -7.538174023746635    
_DFTFUNS= -9.006766230028708    
_DMX=  0.000000000000000    
_DMY=  0.000000000000000    
_DMZ= 0.8141728648117249    
_DMX_SCF=  0.000000000000000    
_DMY_SCF=  0.000000000000000    
_DMZ_SCF= 0.8141728648117249    
_FREQUENCIES= 0.8869141697776335E-04
_HOMO=  1.200000000000000    
_EHOMO=-0.2959146637789928    
_LUMO=  4.100000000000000    
_ELUMO= 0.3144274380057645E-01
_ENERGY= -76.41032420948319    
_ENERGY_METHOD=B3LYP
_ENERGY_BASIS=6-311G(D,P)
_GEOMETRY_METHOD=
_GEOMETRY_BASIS=
_ENUC=  9.148752663014227    
_FREQSTEP=  10.00000000000000    
_GRADENERG= -76.41031325813954    
_GRADEXFAC= 0.2000000000000000    
_GRADMETHOD=  1.000000000000000    
_NMRMETHOD=  0.000000000000000    
_NMRMAGNET=  0.000000000000000    
_VIRIAL=-0.5504587769258925E-02
_GRIDREC=  1800.200000000000    
!GRID_FREEZE= -1.000000000000000    
!GRID_NAME=OLD
!NEESE_INDEX=  0.000000000000000    
_GRID_BLOCKSIZE=  127.0000000000000    
_GRID_SPARSITY=  0.000000000000000    
_GRID_RMAX=  8.120797280033445    
_ITERATIONS=  2.000000000000000    
_LASTNELEC=  10.00000000000000    
_LASTSPIN=  0.000000000000000    
_LASTSYM=  1.000000000000000    
_MPP_PROG=  0.000000000000000    
_MSNSTATES=  0.000000000000000    
_RS2PHASE=  0.000000000000000    
_NGRID=  9800.000000000000    
_IPROC_MPP=  0.000000000000000    
_IPROC_MPPX=  0.000000000000000    
_NPROC_MPP=  1.000000000000000    
_NPROC_MPPX=  1.000000000000000    
_NPROC_SMP=  8.000000000000000    
_NUMSTEP=  0.000000000000000    
_OPTCONVMX= 0.1394032077377538E-03
_OPTCONVRMS= 0.1056013998992728E-03
_OPTGRAD= 0.1362210523663186E-03
_OPTGRADMX= 0.1327967272616900E-03
_OPTGRADRMS= 0.4540701745543953E-04
_OPTSTEP=  4.000000000000000    
_ORBITAL=  2100.200000000000    
_PI=  3.141592653589793    
_SEIG_MIN= 0.1817349183687878E-01
_SEWPROP=TRUE
_STATUS=  1.000000000000000    
_SYSTOT=  1.120000000000000    
_VERSION=  2022002.000000000    
_WALLTOT=  10.29000000000000    
_ZPE= 0.2129708708082267E-01
_DATE=21-Aug-25
_LASTORB=0
_OUTPUT=/home/zwa/Overlap_Integral_Project/overlap_integral_gaussian/h20cal/b3lyp/h2o.out
_PGROUP=C2v
_TIME=14:53:14
_LIBMOL=/usr/local/molpro/molpro_2022.2.3_sockets/lib/
_VIGRDC=  0.000000000000000    
!VIBCNT=  0.000000000000000    
!RGHFCNT=  0.000000000000000    
!SURFREC=  0.000000000000000    
!XSURFREC=  0.000000000000000    
!XPOLYREC=  0.000000000000000    
!ROTREC=  0.000000000000000    
!POLYREC=  0.000000000000000    
!DIPREC=  0.000000000000000    
!DIP4DREC=  0.000000000000000    
!DIPROT=  0.000000000000000    
!DIP4DROT=  0.000000000000000    
!PTREC=  0.000000000000000    
!PT4DREC=  0.000000000000000    
!VSCFREC=  0.000000000000000    
!VCIREC=  0.000000000000000    
!PVCIREC=  0.000000000000000    
!VMP2REC=  0.000000000000000    
!VMCSCFREC=  0.000000000000000    
!VMRCIREC=  0.000000000000000    
!VIBSTATEREC=  0.000000000000000    
!VIBSTATECNT=  0.000000000000000    
!VIBINFO=  0.000000000000000    
!GAREC=  0.000000000000000    
!SCFORB=  21002.00000000000    
!DEFCORE=  1.000000000000000    
!SCORE=  0.000000000000000    
!NEWMOL=  0.000000000000000    
!NEWSYM=  1.000000000000000    
_SLFILES=slscratch
_NGSSTO=  9.000000000000000    
_SIN=SIN
_COS=COS
_TAN=TAN
_ACOS=ACOS
_ASIN=ASIN
_ATAN=ATAN
_COSH=COSH
_SINH=SINH
_TANH=TANH
_ABS=ABS
_MOD=MOD
_ERF=ERF
_REFC=REFC
_ERFC=ERFC
_HYPOT=HYPOT
_J0=J0
_J1=J1
_JN=JN
_GAMMA=GAMMA
_LGAMMA=LGAMMA
_Y0=Y0
_Y1=Y1
_YN=YN
_EXP=EXP
_LOG=LOG
_LOG10=LOG10
_SQRT=SQRT
_INT=INT
_NINT=NINT
_MAX=MAX
_MIN=MIN
_COSMO=  0.000000000000000    
_COSMOIT=  0.000000000000000    
_COSMOES=  0.000000000000000    
_COSMOEDS=  0.000000000000000    
_COSMOEC=  0.000000000000000    
_COSMOEDCORR=  0.000000000000000    
_FEPSI=  1.000000000000000    
_SL_IsMM=  0.000000000000000    
_SL_NSYM=  4.000000000000000    
_SL_System_BitSw=  0.000000000000000    
_SL_Unique_atoms=  0.000000000000000    
_SL_GRAD=  0.000000000000000    
_SL_MAXUPD_Hess=  5.000000000000000    
_SL_N_PRINT_COD=  5.000000000000000    
_SL_PRINT_CODES=  0.000000000000000    
_SL_BasType=  0.000000000000000    
_SL_Energy_Pred=  0.000000000000000    
_SL_New_Coords=  0.000000000000000    
_SL_Total_Nuclea=  0.000000000000000    
_SL_Highest_Mltp=  0.000000000000000    
_SL_Ref_Geom=  0.000000000000000    
_SL_Symmetry_ope=  6.000000000000000    
_SL_agrad=  0.000000000000000    
_SL_GrdMax=  0.000000000000000    
_SL_GrdNorm=  0.000000000000000    
_SL_GrdRMS=  0.000000000000000    
_SL_Hss_Q=  0.000000000000000    
_SL_Hss_X=  0.000000000000000    
_SL_BMxOld=  0.000000000000000    
_SL_KtB=  0.000000000000000    
_SL_TROld=  0.000000000000000    
_SL_No_of_Intern=  0.000000000000000    
_SL_Hess=  0.000000000000000    
_SL_K=  0.000000000000000    
!LATTICE= -1.000000000000000    
!NEWLATTICE=  0.000000000000000    
!LATGRAD_VAR=FALSE
!SEW_LATTICE=  1.000000000000000    
!AIC_ONEEL=  0.000000000000000    
!LOCAL=  0.000000000000000    
!SAVEOCC=  0.000000000000000    
!SAVEDOM= -1.000000000000000    
!RESTDOM= -1.000000000000000    
!SAVEDOM_HF= -1.000000000000000    
!RESTDOM_HF= -1.000000000000000    
!HESSREC=  5300.200000000000    
!FREQREC=  5400.200000000000    
!NMODREC=  5450.200000000000    
!GTASKS=  0.000000000000000    
!HTASKS=  0.000000000000000    
!SAVEDOM_EOM= -1.000000000000000    
!RESTDOM_EOM= -1.000000000000000    
!GRADSTATE= -1.000000000000000    
!DEBUG=  0.000000000000000    
!CFIT_CPHF=  0.000000000000000    
!RDOMAUX_CPHF=  0.000000000000000    
!THRAO_CPHF= 0.1000000000000000E-11
!THRMO_CPHF= 0.1000000000000000E-11
!THROV_CPHF= 0.1000000000000000E-11
!THRSW_CPHF= 0.1000000000000000E-11
!THRPROD_CPHF= 0.1000000000000000E-11
!THRAOPR_CPHF= 0.1000000000000000E-11
!CFIT_SCFGRD=  0.000000000000000    
!RDOMAUX_SCFGRD=  0.000000000000000    
!THRAO_SCFGRD= 0.1000000000000000E-11
!THRMO_SCFGRD= 0.1000000000000000E-11
!THROV_SCFGRD= 0.1000000000000000E-11
!THRSW_SCFGRD= 0.1000000000000000E-11
!THRPROD_SCFGRD= 0.1000000000000000E-11
!THRAOPR_SCFGRD= 0.1000000000000000E-11
!LOCFIT_SCF=  0.000000000000000    
!LOCFIT_MP2=  0.000000000000000    
_RIDOM=  0.000000000000000    
!CC2_METHOD=  0.000000000000000    
_BASIS2006=FALSE
_SVDDEL= -1.000000000000000    
_SVDDELA= -1.000000000000000    
_SVDDELP= -1.000000000000000    
_SVDDELF= -1.000000000000000    
_SVDDELS= -1.000000000000000    
_SVDDEL_ABS= -1.000000000000000    
_SVDDELA_ABS= -1.000000000000000    
_SVDDELP_ABS= -1.000000000000000    
_SVDDELF_ABS= -1.000000000000000    
_SVDDELS_ABS= -1.000000000000000    
_MAXBASIS=  0.000000000000000    
!OPT_CONICAL=  0.000000000000000    
!CLEARSP_JGRID=  0.000000000000000    
_GRDHYBR=  0.000000000000000    
_STATEGRAD=  1.000000000000000    
_4EXT_NDISKS=  1.000000000000000    
!EMBEDFLAG=  1.000000000000000    
!EMBED=FALSE
!EMBED_F12=FALSE
!EMBEDNUC=  0.000000000000000    
_EMBEDENERGY=  0.000000000000000    
!EMBED_DFC=FALSE
!NUM_VOIDS=  0.000000000000000    
_IBODY=  0.000000000000000    
_EMBE_CORR=  0.000000000000000    
!EMBED_PROJ=FALSE
!EMB_PROJ_ZMU=  1000000.000000000    
!CORRECTION_HF=  0.000000000000000    
!EMBED_AORB=  0.000000000000000    
!EMBED_NACORR=  0.000000000000000    
!EMBED_MP2=FALSE
!EMBED_TRUNC_PERTURBATION=FALSE
!EMBED_FROZEN=  0.000000000000000    
!EMBED_ACTIVE=  0.000000000000000    
_CHANGE_BASIS=FALSE
_RESTORE_BASIS=FALSE
_FIX_EMBED_GUESS=FALSE
_EMBED_SCF=FALSE
_HUZINAGA_T=FALSE
_HUZINAGA_F=FALSE
_HUZINAGA=FALSE
_HUZINAGA_CORRECT=FALSE
!FASTLATGRAD=  1.000000000000000    
!FASTVLAMBDA= -1.000000000000000    
!IFORCE= -1.000000000000000    
!USESYM= -1.000000000000000    
_SINDEX=  0.000000000000000    
_AVDOM_OSV=  0.000000000000000    
_AVDOM_PNO=  0.000000000000000    
_AVDOM_PAO=  0.000000000000000    
_AVDOM_LMO=  0.000000000000000    
_CC2OSV_FLAG=  0.000000000000000    
_EOMCCSD_CONV=FALSE
_TMADC2_FLAG=FALSE
_PROPADC2_FLAG=FALSE
_LEN_VirQ=  0.000000000000000    
_GRDCC2LR_FLAG=FALSE
_GRDADC2_FLAG=FALSE
_RO_VGLOBAL=  0.000000000000000    
_OPT=FALSE
_FREQ=FALSE
_HESS=FALSE
_CMRCC_callName=EMPTY
_CMRCC_callCount=  0.000000000000000    
_GECCO_CIROOT=  1.000000000000000    
_SYM_CATION=  2.000000000000000    
_MON_A=FALSE
_MON_B=FALSE
GX1=  0.000000000000000    
GY1=  0.000000000000000    
GZ1=-0.6644500927291988E-01
GX2=  0.000000000000000    
GY2= 0.7572081517769895    
GZ2= 0.5272651220546816    
GX3=  0.000000000000000    
GY3=-0.7572081517769895    
GZ3= 0.5272651220546816    
OX1=  0.000000000000000    
OY1=  0.000000000000000    
OZ1=-0.1255628698740383    
HX2=  0.000000000000000    
HY2=  1.430916026192572    
HZ2= 0.9963866757507271    
HX3=  0.000000000000000    
HY3= -1.430916026192572    
HZ3= 0.9963866757507271    
[Atoms] Angs
O     1    8         0.0000000000        0.0000000000       -0.0664450093
H     2    1         0.0000000000        0.7572081518        0.5272651221
H     3    1         0.0000000000       -0.7572081518        0.5272651221
[GTO]
   1 0
 s    6  1.00
  0.8588500000D+04  0.1895150083D-02
  0.1297230000D+04  0.1438590063D-01
  0.2992960000D+03  0.7073200310D-01
  0.8737710000D+02  0.2400010105D+00
  0.2567890000D+02  0.5947970261D+00
  0.3740040000D+01  0.2808020123D+00
 s    3  1.00
  0.4211750000D+02  0.1138890124D+00
  0.9628370000D+01  0.9208111006D+00
  0.2853320000D+01 -0.3274470358D-02
 s    1  1.00
  0.9056610000D+00  0.1000000000D+01
 s    1  1.00
  0.2556110000D+00  0.1000000000D+01
 p    3  1.00
  0.4211750000D+02  0.3651139738D-01
  0.9628370000D+01  0.2371529830D+00
  0.2853320000D+01  0.8197019412D+00
 p    1  1.00
  0.9056610000D+00  0.1000000000D+01
 p    1  1.00
  0.2556110000D+00  0.1000000000D+01
 d    1  1.00
  0.1292000000D+01  0.1000000000D+01
  
   2 0
 s    3  1.00
  0.3386500000D+02  0.2549381454D-01
  0.5094790000D+01  0.1903731086D+00
  0.1158790000D+01  0.8521614860D+00
 s    1  1.00
  0.3258400000D+00  0.1000000000D+01
 s    1  1.00
  0.1027410000D+00  0.1000000000D+01
 p    1  1.00
  0.7500000000D+00  0.1000000000D+01
  
   3 0
 s    3  1.00
  0.3386500000D+02  0.2549381454D-01
  0.5094790000D+01  0.1903731086D+00
  0.1158790000D+01  0.8521614860D+00
 s    1  1.00
  0.3258400000D+00  0.1000000000D+01
 s    1  1.00
  0.1027410000D+00  0.1000000000D+01
 p    1  1.00
  0.7500000000D+00  0.1000000000D+01


[MO]
 Sym=      1.1
 Ene=     -19.0991
 Spin= Alpha
 Occup=    2.000000
1 0.55130461678700
2 0.46985303977811
3 0.012442302360117
4 -0.003071966307644
5 0.0
6 0.0
7 0.001294158122453
8 0.0
9 0.0
10 0.000661903322676
11 0.0
12 0.0
13 0.000118619736698
14 -0.000402886627525
15 0.000352236383754
16 0.000050650243771
17 0.0
18 0.0
19 0.0
20 -0.000069684675491
21 -0.000918944523325
22 0.000718201948211
23 0.0
24 0.000924874380474
25 0.000750361312059
26 -0.000069684675491
27 -0.000918944523325
28 0.000718201948211
29 0.0
30 -0.000924874380474
31 0.000750361312059
 Sym=      2.1
 Ene=      -0.9990
 Spin= Alpha
 Occup=    2.000000
1 -0.11564411011541
2 -0.18504063921027
3 0.53721483449034
4 0.35438607674255
5 0.0
6 0.0
7 0.054862649894518
8 0.0
9 0.0
10 0.083563386234300
11 0.0
12 0.0
13 0.029131917630941
14 -0.009811048836858
15 0.005766715823087
16 0.004044333013771
17 0.0
18 0.0
19 0.0
20 0.10004178910831
21 0.083947613984327
22 0.003979024234801
23 0.0
24 -0.022896818083127
25 -0.012921218680831
26 0.10004178910831
27 0.083947613984327
28 0.003979024234801
29 0.0
30 0.022896818083127
31 -0.012921218680831
 Sym=      1.3
 Ene=      -0.5180
 Spin= Alpha
 Occup=    2.000000
1 0.0
2 0.0
3 0.0
4 0.0
5 0.0
6 0.23960900626978
7 0.0
8 0.0
9 0.34282309123327
10 0.0
11 0.0
12 0.20864180215880
13 0.0
14 0.0
15 0.0
16 0.0
17 0.0
18 0.0
19 0.025007980436121
20 0.15459038131378
21 0.20267819256534
22 0.082975480237104
23 0.0
24 -0.013251200348804
25 -0.022782844005462
26 -0.15459038131378
27 -0.20267819256534
28 -0.082975480237104
29 0.0
30 -0.013251200348804
31 0.022782844005462
 Sym=      3.1
 Ene=      -0.3730
 Spin= Alpha
 Occup=    2.000000
1 0.045309083207434
2 0.073587706254677
3 -0.21692986288648
4 -0.36551380475326
5 0.0
6 0.0
7 0.26276043188478
8 0.0
9 0.0
10 0.35889752259520
11 0.0
12 0.0
13 0.33504151090935
14 -0.009949835673996
15 -0.007268008946709
16 0.017217844620705
17 0.0
18 0.0
19 0.0
20 0.088291656618660
21 0.14392986021409
22 0.040544196027944
23 0.0
24 -0.026600466728955
25 0.013147921191009
26 0.088291656618660
27 0.14392986021409
28 0.040544196027944
29 0.0
30 0.026600466728955
31 0.013147921191009
 Sym=      1.2
 Ene=      -0.2959
 Spin= Alpha
 Occup=    2.000000
1 0.0
2 0.0
3 0.0
4 0.0
5 0.30451035862993
6 0.0
7 0.0
8 0.42151772746437
9 0.0
10 0.0
11 0.47300796805601
12 0.0
13 0.0
14 0.0
15 0.0
16 0.0
17 0.0
18 0.017895362762986
19 0.0
20 0.0
21 0.0
22 0.0
23 0.032307200098623
24 0.0
25 0.0
26 0.0
27 0.0
28 0.0
29 0.032307200098623
30 0.0
31 0.0
 Sym=      4.1
 Ene=       0.0314
 Spin= Alpha
 Occup=    0.000000
1 0.040968704911142
2 0.065766841941833
3 -0.17055701396625
4 -0.81310264979743
5 0.0
6 0.0
7 -0.10413937700700
8 0.0
9 0.0
10 -0.15718237348504
11 0.0
12 0.0
13 -0.24080916915866
14 0.003935428975054
15 0.002646068796297
16 -0.006581497771351
17 0.0
18 0.0
19 0.0
20 0.044462752883353
21 0.050084244832129
22 0.75727384004550
23 0.0
24 0.015145239229423
25 0.003802556997087
26 0.044462752883353
27 0.050084244832129
28 0.75727384004550
29 0.0
30 -0.015145239229423
31 0.003802556997087
 Sym=      2.3
 Ene=       0.1066
 Spin= Alpha
 Occup=    0.000000
1 0.0
2 0.0
3 0.0
4 0.0
5 0.0
6 -0.16660594474999
7 0.0
8 0.0
9 -0.20248466013100
10 0.0
11 0.0
12 -0.52718443892591
13 0.0
14 0.0
15 0.0
16 0.0
17 0.0
18 0.0
19 -0.001725818053360
20 0.038572810494301
21 0.039513523854524
22 1.38764361251962
23 0.0
24 0.015914677141817
25 0.016412181449147
26 -0.038572810494301
27 -0.039513523854524
28 -1.38764361251962
29 0.0
30 0.015914677141817
31 -0.016412181449147
 Sym=      3.3
 Ene=       0.3813
 Spin= Alpha
 Occup=    0.000000
1 0.0
2 0.0
3 0.0
4 0.0
5 0.0
6 -0.12658120405184
7 0.0
8 0.0
9 -0.19496995313980
10 0.0
11 0.0
12 -0.90689884949434
13 0.0
14 0.0
15 0.0
16 0.0
17 0.0
18 0.0
19 0.020907183466913
20 0.11792489883188
21 1.35556118398665
22 -0.96848648526270
23 0.0
24 -0.022808452485650
25 0.010097565990037
26 -0.11792489883188
27 -1.35556118398665
28 0.96848648526270
29 0.0
30 -0.022808452485650
31 -0.010097565990037
 Sym=      5.1
 Ene=       0.4270
 Spin= Alpha
 Occup=    0.000000
1 0.032753691339638
2 0.055267340889360
3 -0.15222544065288
4 -1.08751353265660
5 0.0
6 0.0
7 -0.12148187224795
8 0.0
9 0.0
10 -0.21925914082201
11 0.0
12 0.0
13 -0.87444866756870
14 -0.008306137749498
15 0.018639008842466
16 -0.010332871092968
17 0.0
18 0.0
19 0.0
20 0.10229443705113
21 1.65253931242012
22 -0.69428929578092
23 0.0
24 -0.014668518568736
25 -0.035287972359023
26 0.10229443705113
27 1.65253931242012
28 -0.69428929578092
29 0.0
30 0.014668518568736
31 -0.035287972359023
 Sym=      6.1
 Ene=       0.7633
 Spin= Alpha
 Occup=    0.000000
1 -0.019038438338186
2 -0.033272793853131
3 0.075670419408423
4 0.96166627034888
5 0.0
6 0.0
7 -0.25199802477490
8 0.0
9 0.0
10 -0.70366734877900
11 0.0
12 0.0
13 1.59789218800889
14 -0.008079140874210
15 0.010443638175520
16 -0.002364497301310
17 0.0
18 0.0
19 0.0
20 -0.025439178444513
21 -0.67496722232703
22 -0.075687316452018
23 0.0
24 0.11756601062603
25 0.11819097192563
26 -0.025439178444513
27 -0.67496722232703
28 -0.075687316452018
29 0.0
30 -0.11756601062603
31 0.11819097192563
 Sym=      2.2
 Ene=       0.7676
 Spin= Alpha
 Occup=    0.000000
1 0.0
2 0.0
3 0.0
4 0.0
5 -0.26847514824635
6 0.0
7 0.0
8 -0.80953299875572
9 0.0
10 0.0
11 1.12410837070497
12 0.0
13 0.0
14 0.0
15 0.0
16 0.0
17 0.0
18 -0.008006542599242
19 0.0
20 0.0
21 0.0
22 0.0
23 -0.000624080841989
24 0.0
25 0.0
26 0.0
27 0.0
28 0.0
29 -0.000624080841989
30 0.0
31 0.0
 Sym=      4.3
 Ene=       0.8653
 Spin= Alpha
 Occup=    0.000000
1 0.0
2 0.0
3 0.0
4 0.0
5 0.0
6 -0.25537524219999
7 0.0
8 0.0
9 -0.68719786166787
10 0.0
11 0.0
12 1.84340434154717
13 0.0
14 0.0
15 0.0
16 0.0
17 0.0
18 0.0
19 0.021357638158722
20 0.008020363963694
21 -0.42542652433390
22 -0.79651367911524
23 0.0
24 0.15584834883852
25 0.11629240776631
26 -0.008020363963694
27 0.42542652433390
28 0.79651367911524
29 0.0
30 0.15584834883852
31 -0.11629240776631
 Sym=      7.1
 Ene=       1.0699
 Spin= Alpha
 Occup=    0.000000
1 0.10507429041507
2 0.20497693824614
3 -1.53501008121775
4 3.12632865743519
5 0.0
6 0.0
7 -0.024557842644730
8 0.0
9 0.0
10 0.14595310749534
11 0.0
12 0.0
13 0.61157710198029
14 -0.023005662340458
15 -0.008916320466490
16 0.031921982806947
17 0.0
18 0.0
19 0.0
20 0.026021448020171
21 -0.87767744478228
22 -0.35039372222840
23 0.0
24 0.13528784883696
25 0.34084577080015
26 0.026021448020171
27 -0.87767744478228
28 -0.35039372222840
29 0.0
30 -0.13528784883696
31 0.34084577080015
 Sym=      8.1
 Ene=       1.2431
 Spin= Alpha
 Occup=    0.000000
1 -0.034165443189037
2 -0.067857364731945
3 0.59703004652697
4 -1.97786863578529
5 0.0
6 0.0
7 -0.009013676908846
8 0.0
9 0.0
10 -0.061517760437035
11 0.0
12 0.0
13 -1.27715642576982
14 -0.014976421583069
15 -0.11325285337053
16 0.12822927495360
17 0.0
18 0.0
19 0.0
20 -0.080879118952276
21 1.17019477773556
22 -0.034266384864351
23 0.0
24 -0.58318300060041
25 0.41802265896329
26 -0.080879118952276
27 1.17019477773556
28 -0.034266384864351
29 0.0
30 0.58318300060041
31 0.41802265896329
 Sym=      1.4
 Ene=       1.2718
 Spin= Alpha
 Occup=    0.000000
1 0.0
2 0.0
3 0.0
4 0.0
5 0.0
6 0.0
7 0.0
8 0.0
9 0.0
10 0.0
11 0.0
12 0.0
13 0.0
14 0.0
15 0.0
16 0.0
17 0.13209597486599
18 0.0
19 0.0
20 0.0
21 0.0
22 0.0
23 0.68697615260668
24 0.0
25 0.0
26 0.0
27 0.0
28 0.0
29 -0.68697615260668
30 0.0
31 0.0
 Sym=      3.2
 Ene=       1.4623
 Spin= Alpha
 Occup=    0.000000
1 0.0
2 0.0
3 0.0
4 0.0
5 -0.046315386611620
6 0.0
7 0.0
8 -0.024048026074815
9 0.0
10 0.0
11 -0.58249736262379
12 0.0
13 0.0
14 0.0
15 0.0
16 0.0
17 0.0
18 0.15537369415875
19 0.0
20 0.0
21 0.0
22 0.0
23 0.76315570356159
24 0.0
25 0.0
26 0.0
27 0.0
28 0.0
29 0.76315570356159
30 0.0
31 0.0
 Sym=      5.3
 Ene=       1.6621
 Spin= Alpha
 Occup=    0.000000
1 0.0
2 0.0
3 0.0
4 0.0
5 0.0
6 0.015764578849722
7 0.0
8 0.0
9 0.039269842893559
10 0.0
11 0.0
12 -0.91053032555435
13 0.0
14 0.0
15 0.0
16 0.0
17 0.0
18 0.0
19 -0.071296812233329
20 -0.18666505739756
21 0.74937922796622
22 -0.17589406128184
23 0.0
24 0.49375838434118
25 -0.63519282939781
26 0.18666505739756
27 -0.74937922796622
28 0.17589406128184
29 0.0
30 0.49375838434118
31 0.63519282939781
 Sym=      6.3
 Ene=       1.9240
 Spin= Alpha
 Occup=    0.000000
1 0.0
2 0.0
3 0.0
4 0.0
5 0.0
6 0.17309104033430
7 0.0
8 0.0
9 0.41560017844574
10 0.0
11 0.0
12 0.065598055484611
13 0.0
14 0.0
15 0.0
16 0.0
17 0.0
18 0.0
19 -0.23361105232545
20 -0.66450232155206
21 0.68786214319332
22 -0.59255007425461
23 0.0
24 0.29522553368470
25 0.49679424537328
26 0.66450232155206
27 -0.68786214319332
28 0.59255007425461
29 0.0
30 0.29522553368470
31 -0.49679424537328
 Sym=      9.1
 Ene=       2.0539
 Spin= Alpha
 Occup=    0.000000
1 0.029380732161675
2 0.052322372943850
3 -0.21908324366144
4 -0.000470819365513
5 0.0
6 0.0
7 -0.16897045237784
8 0.0
9 0.0
10 -0.22237220782050
11 0.0
12 0.0
13 0.16869618337439
14 -0.27196939347579
15 0.18976702747477
16 0.082202366001023
17 0.0
18 0.0
19 0.0
20 0.86377566396984
21 -1.04188856083084
22 0.43749994094038
23 0.0
24 -0.33404004014612
25 -0.16435195781955
26 0.86377566396984
27 -1.04188856083084
28 0.43749994094038
29 0.0
30 0.33404004014612
31 -0.16435195781955
 Sym=     10.1
 Ene=       2.2916
 Spin= Alpha
 Occup=    0.000000
1 0.054414306415227
2 0.11924938478928
3 -0.83561126020784
4 -1.81987894795433
5 0.0
6 0.0
7 -0.027567044413321
8 0.0
9 0.0
10 -0.63631488042138
11 0.0
12 0.0
13 -0.78039972804058
14 -0.034523759533517
15 0.004748481097660
16 0.029775278435857
17 0.0
18 0.0
19 0.0
20 -0.60214063402101
21 2.03322605240111
22 -0.28259072929108
23 0.0
24 -0.87233033370754
25 -0.64926475980618
26 -0.60214063402101
27 2.03322605240111
28 -0.28259072929108
29 0.0
30 0.87233033370754
31 -0.64926475980618
 Sym=      7.3
 Ene=       2.4830
 Spin= Alpha
 Occup=    0.000000
1 0.0
2 0.0
3 0.0
4 0.0
5 0.0
6 -0.024828375361800
7 0.0
8 0.0
9 -0.83574710672408
10 0.0
11 0.0
12 -0.67649553635975
13 0.0
14 0.0
15 0.0
16 0.0
17 0.0
18 0.0
19 -0.20079962727231
20 -0.80807508508628
21 2.07983112236080
22 -0.53754551084193
23 0.0
24 -0.86314229598166
25 -0.62164496147632
26 0.80807508508628
27 -2.07983112236080
28 0.53754551084193
29 0.0
30 -0.86314229598166
31 0.62164496147632
 Sym=      4.2
 Ene=       3.1158
 Spin= Alpha
 Occup=    0.000000
1 0.0
2 0.0
3 0.0
4 0.0
5 0.015652257947748
6 0.0
7 0.0
8 -0.016474848427581
9 0.0
10 0.0
11 0.27262487465725
12 0.0
13 0.0
14 0.0
15 0.0
16 0.0
17 0.0
18 1.03240339049423
19 0.0
20 0.0
21 0.0
22 0.0
23 -0.36153036062948
24 0.0
25 0.0
26 0.0
27 0.0
28 0.0
29 -0.36153036062948
30 0.0
31 0.0
 Sym=      2.4
 Ene=       3.1578
 Spin= Alpha
 Occup=    0.000000
1 0.0
2 0.0
3 0.0
4 0.0
5 0.0
6 0.0
7 0.0
8 0.0
9 0.0
10 0.0
11 0.0
12 0.0
13 0.0
14 0.0
15 0.0
16 0.0
17 1.05063955123882
18 0.0
19 0.0
20 0.0
21 0.0
22 0.0
23 -0.34053832601608
24 0.0
25 0.0
26 0.0
27 0.0
28 0.0
29 0.34053832601608
30 0.0
31 0.0
 Sym=     11.1
 Ene=       3.3229
 Spin= Alpha
 Occup=    0.000000
1 0.000130163301954
2 0.000610459115235
3 -0.063371643836872
4 0.64761240985928
5 0.0
6 0.0
7 0.030061401973402
8 0.0
9 0.0
10 0.015129223029733
11 0.0
12 0.0
13 0.58628304766510
14 -0.36825316966483
15 -0.69527643667831
16 1.06352960634314
17 0.0
18 0.0
19 0.0
20 -0.002757808215960
21 -0.44935960759009
22 0.032161810549912
23 0.0
24 0.36406493041159
25 -0.26430052305520
26 -0.002757808215960
27 -0.44935960759009
28 0.032161810549912
29 0.0
30 -0.36406493041159
31 -0.26430052305520
 Sym=     12.1
 Ene=       3.5927
 Spin= Alpha
 Occup=    0.000000
1 0.021706035990517
2 0.040407076442115
3 -0.096617148096390
4 -2.08139430207283
5 0.0
6 0.0
7 -0.32839586116042
8 0.0
9 0.0
10 -0.079981310806536
11 0.0
12 0.0
13 -1.01054687890075
14 1.03801335508930
15 -0.87020565907427
16 -0.16780769601503
17 0.0
18 0.0
19 0.0
20 0.28055690081284
21 1.12585769253479
22 0.043904529058414
23 0.0
24 -0.58703192951830
25 -0.46708232202207
26 0.28055690081284
27 1.12585769253479
28 0.043904529058414
29 0.0
30 0.58703192951830
31 -0.46708232202207
 Sym=      8.3
 Ene=       3.8257
 Spin= Alpha
 Occup=    0.000000
1 0.0
2 0.0
3 0.0
4 0.0
5 0.0
6 0.46484295635514
7 0.0
8 0.0
9 -0.085372077219079
10 0.0
11 0.0
12 0.96240184597649
13 0.0
14 0.0
15 0.0
16 0.0
17 0.0
18 0.0
19 1.14621489028394
20 -0.37773486454137
21 -0.52270280358247
22 -0.23926551495321
23 0.0
24 0.46574939836706
25 0.36179270611866
26 0.37773486454137
27 0.52270280358247
28 0.23926551495321
29 0.0
30 0.46574939836706
31 -0.36179270611866
 Sym=      5.2
 Ene=       4.7681
 Spin= Alpha
 Occup=    0.000000
1 0.0
2 0.0
3 0.0
4 0.0
5 1.26192850248781
6 0.0
7 0.0
8 -1.39522320333881
9 0.0
10 0.0
11 0.50060558286221
12 0.0
13 0.0
14 0.0
15 0.0
16 0.0
17 0.0
18 -0.024996945486320
19 0.0
20 0.0
21 0.0
22 0.0
23 0.057901246091135
24 0.0
25 0.0
26 0.0
27 0.0
28 0.0
29 0.057901246091135
30 0.0
31 0.0
 Sym=     13.1
 Ene=       5.1903
 Spin= Alpha
 Occup=    0.000000
1 0.023796504274119
2 0.042799256056632
3 -0.22246803798034
4 -1.07114986465877
5 0.0
6 0.0
7 1.24621341042401
8 0.0
9 0.0
10 -1.74029105589001
11 0.0
12 0.0
13 0.077353936430701
14 0.37988670636189
15 -0.27437998470677
16 -0.10550672165512
17 0.0
18 0.0
19 0.0
20 0.28066923424601
21 0.52885000828919
22 0.013290822980799
23 0.0
24 -0.48911925835279
25 -0.28959159457316
26 0.28066923424601
27 0.52885000828919
28 0.013290822980799
29 0.0
30 0.48911925835279
31 -0.28959159457316
 Sym=      9.3
 Ene=       5.6083
 Spin= Alpha
 Occup=    0.000000
1 0.0
2 0.0
3 0.0
4 0.0
5 0.0
6 -1.23785579433140
7 0.0
8 0.0
9 2.01069058144622
10 0.0
11 0.0
12 -0.14642329600582
13 0.0
14 0.0
15 0.0
16 0.0
17 0.0
18 0.0
19 0.66579287796494
20 -0.33948799704313
21 -0.51082790284536
22 0.15110586899219
23 0.0
24 0.53510473693756
25 0.47781593447040
26 0.33948799704313
27 0.51082790284536
28 -0.15110586899219
29 0.0
30 0.53510473693756
31 -0.47781593447040
 Sym=     14.1
 Ene=      49.8455
 Spin= Alpha
 Occup=    0.000000
1 -2.24653976830171
2 2.33672155122183
3 -0.26907829381718
4 0.078943571755784
5 0.0
6 0.0
7 0.017929622240375
8 0.0
9 0.0
10 -0.069733151425680
11 0.0
12 0.0
13 -0.008645567462854
14 0.022729321353710
15 -0.019222774525293
16 -0.003506546828417
17 0.0
18 0.0
19 0.0
20 0.004359549843733
21 0.064753521451610
22 -0.031219464164839
23 0.0
24 -0.057624952667853
25 -0.044467503084444
26 0.004359549843733
27 0.064753521451610
28 -0.031219464164839
29 0.0
30 0.057624952667853
31 -0.044467503084444
 [FREQ]
      0.00
      0.00
      0.00
      0.00
      0.00
      0.00
   1637.63
   3806.97
   3903.75
 [FR-COORD]
O          0.0000000000        0.0000000000       -0.1255628699
H          0.0000000000        1.4309160262        0.9963866758
H          0.0000000000       -1.4309160262        0.9963866758
 [FR-NORM-COORD]
 Vibration                    1
         -0.00000000         -0.07903166          0.16185344
         -0.29810808         -0.26245045          0.39578276
          0.29812985         -0.26245045         -0.07207588
 Vibration                    2
         -0.00000000         -0.00745638          0.12220753
         -0.08222071          0.36324167         -0.35057467
          0.08224714          0.36324167          0.59498973
 Vibration                    3
         -0.00000000          0.22241555          0.03748151
         -0.22460788          0.09021535          0.20608747
          0.24175194          0.09021535         -0.13112445
 Vibration                    4
          0.25003978          0.00000000          0.00000000
         -0.00000000          0.00000000          0.00000000
         -0.00000000          0.00000000         -0.00000000
 Vibration                    5
          0.00000000         -0.00276497         -0.00060460
          0.70640636         -0.00104221         -0.00280178
          0.70220091         -0.00104221          0.00159258
 Vibration                    6
          0.00000000          0.04707529          0.11395848
          0.58919304         -0.04645898          0.23325056
         -0.58741777         -0.04645898         -0.00533359
 Vibration                    7
          0.00000000          0.00000000         -0.06775123
          0.00000000         -0.41309350          0.53763046
         -0.00000000          0.41309350          0.53763046
 Vibration                    8
          0.00000000          0.00000000         -0.04905790
          0.00000000          0.57050122          0.38929216
         -0.00000000         -0.57050122          0.38929216
 Vibration                    9
          0.00000000         -0.06727470         -0.00000000
          0.00000000          0.53384904          0.41857920
         -0.00000000          0.53384904         -0.41857920
