
 Working directory              : /tmp/zwa/molpro.HmU3RIVAKA/
 Global scratch directory       : /tmp/zwa/molpro.HmU3RIVAKA/
 Wavefunction directory         : /home/zwa/wfu/
 Main file repository           : /tmp/zwa/molpro.HmU3RIVAKA/

 id        : liedlgroup

 Nodes     nprocs
 rh2-c724     1
 GA implementation: MPI file
 GA implementation (serial work in mppx): MPI file

 Using customized tuning parameters: mindgm=1; mindgv=20; mindgc=4; mindgr=1; noblas=0; minvec=7
 default implementation of scratch files=df  


 Variables initialized (1015), CPU time= 0.00 sec
 memory,1000,m
 orient,mass
 geometry = {
  O,                 -2.37974678 ,   3.40506324 ,   0.00000000
  H,                 -1.41974678 ,   3.40506324 ,   0.00000000
  H,                 -2.70020136 ,   4.30999907 ,   0.00000000
 }
 mass,iso
 basis=6-311g(d,p)
 ks,b3lyp
 
 optg
 {frequencies, symm=auto,print=0,analytical}
 put,molden,h2o.molden
 Commands initialized (834), CPU time= 0.01 sec, 672 directives.
 Default parameters read. Elapsed time= 0.06 sec

 Checking input...
 Passed
1


                                         ***  PROGRAM SYSTEM MOLPRO  ***
                                       Copyright, TTI GmbH Stuttgart, 2015
                                    Version 2022.2 linked Thu Sep 29 12:37:28 2022


 **********************************************************************************************************************************
 LABEL *                                                                                 
  (8 PROC) 64 bit serial version                                                         DATE: 21-Aug-25          TIME: 14:49:11  
 **********************************************************************************************************************************

 SHA1:             51306cdc306ce2a111a2867affebcb289530e0a7
 **********************************************************************************************************************************

 Memory per process:      1000 MW
 Total memory per node:   1000 MW

 GA preallocation disabled
 GA check disabled

 Variable memory set to 1000.0 MW

 ZCENTRE=MASS


 Geometry recognized as XYZ



 Using masses of most abundant isotopes

 **********************************************************************************************************************************
 SETTING BASIS          =    6-311G(D,P)


 Recomputing integrals since basis changed


 Using spherical harmonics

 Library entry O      S 6-311G               selected for orbital group  1
 Library entry O      P 6-311G               selected for orbital group  1
 Library entry O      D 6-311G*              selected for orbital group  1
 Library entry H      S 6-311G               selected for orbital group  2
 Library entry H      P 6-311G**             selected for orbital group  2


 PROGRAM * SEWARD (Integral evaluation for generally contracted gaussian basis sets)     Author: Roland Lindh, 1990

 Geometry written to block  1 of record 700

 Orientation using atomic masses  
 Molecule type: Asymmetric top,     Order of principal axis = 2
 Symmetry elements: X,Y
 Rotational constants:     282.5913843    919.6760006    407.9403386 GHz

 Point group  C2v 



 ATOMIC COORDINATES

 NR  ATOM    CHARGE       X              Y              Z

   1  O       8.00    0.000000000    0.000000000   -0.117177192
   2  H       1.00    0.000000000    1.481499721    0.929843299
   3  H       1.00    0.000000000   -1.481499721    0.929843299

 Bond lengths in Bohr (Angstrom)

 1-2  1.814137077  1-3  1.814137077
     ( 0.959999999)     ( 0.959999999)

 Bond angles

  2-1-3  109.49999976

 NUCLEAR CHARGE:                   10
 NUMBER OF PRIMITIVE AOS:          48
 NUMBER OF SYMMETRY AOS:           47
 NUMBER OF CONTRACTIONS:           30   (   14A1  +    5B1  +    9B2  +    2A2  )
 NUMBER OF INNER CORE ORBITALS:     0   (    0A1  +    0B1  +    0B2  +    0A2  )
 NUMBER OF OUTER CORE ORBITALS:     1   (    1A1  +    0B1  +    0B2  +    0A2  )
 NUMBER OF VALENCE ORBITALS:        6   (    3A1  +    1B1  +    2B2  +    0A2  )


 NUCLEAR REPULSION ENERGY    9.15711604

 Eigenvalues of metric

         1 0.189E-01 0.900E-01 0.114E+00 0.151E+00 0.288E+00 0.441E+00 0.590E+00 0.833E+00
         2 0.215E+00 0.457E+00 0.912E+00 0.118E+01 0.228E+01
         3 0.399E-01 0.994E-01 0.122E+00 0.402E+00 0.562E+00 0.835E+00 0.125E+01 0.156E+01
         4 0.646E+00 0.132E+01


 Contracted 2-electron integrals neglected if value below      1.0D-11
 AO integral compression algorithm  1   Integral accuracy      1.0D-11

     0.524 MB (compressed) written to integral file ( 74.1%)


 NUMBER OF SORTED TWO-ELECTRON INTEGRALS:      32916.     BUFFER LENGTH:  32768
 NUMBER OF SEGMENTS:   1  SEGMENT LENGTH:      32916      RECORD LENGTH: 524288

 Memory used in sort:       0.59 MW

 SORT1 READ       47172. AND WROTE       30106. INTEGRALS IN      1 RECORDS. CPU TIME:     0.00 SEC, REAL TIME:     0.00 SEC
 SORT2 READ       30106. AND WROTE       32916. INTEGRALS IN      2 RECORDS. CPU TIME:     0.01 SEC, REAL TIME:     0.01 SEC

 FILE SIZES:   FILE 1:    30.5 MBYTE,  FILE 4:     4.2 MBYTE,   TOTAL:     34.8 MBYTE

 OPERATOR DM      FOR CENTER  0  COORDINATES:    0.000000    0.000000    0.000000


 **********************************************************************************************************************************
 DATASETS  * FILE   NREC   LENGTH (MB)   RECORD NAMES
              1      19       28.78       500      610      700      900      950      970     1000      129      960     1100   
                                          VAR    BASINP    GEOM    SYMINP    ZMAT    AOBASIS   BASIS     P2S    ABASIS      S 
                                         1400     1410     1200     1210     1080     1600     1650     1300     1700   
                                           T        V       H0       H01     AOSYM     SMH    MOLCAS    ERIS     OPER   

 PROGRAMS   *        TOTAL       INT
 CPU TIMES  *         0.38      0.26
 REAL TIME  *         0.64 SEC
 DISK USED  *        33.43 MB
 **********************************************************************************************************************************


 Program * Restricted Kohn-Sham

 Density functional group B3LYP=B88+DIRAC+LYP+VWN5
 Functional: B88(Automatically generated (new) B88)                            Gradient terms: 1
 Functional: DIRAC(Automatically generated (new) DIRAC)                        Gradient terms: 0
 Functional: LYP(Automatically generated (new) LYP)                            Gradient terms: 1
 Functional: VWN5(Automatically generated (new) VWN5)                          Gradient terms: 0

 Exact exchange will be calculated, factor:  0.2000
 Functional: B88                    Factor:  0.7200
 Functional: DIRAC                  Factor:  0.0800
 Functional: LYP                    Factor:  0.8100
 Functional: VWN5                   Factor:  0.1900


 Setting radial_scaling=1d0
 Radial grid threshold:                     5.0D-07
 Global grid threshold:                     1.0D-06
 Angular grid threshold:                    1.0D-07
 Fac_Neighbour:                                 4.0
 Size adjustment in partitioning scheme:   TREUTLER
 Skip grid points with weights lower than:  1.0D-20
 Grid orientation:                           T

 Generated new metagrid on record  1800.2 with target accuracy 1.0D-06 and 3012 points in CPU time    0.1
 Computed new grid on record 1800.1 in CPU time    0.1

 DFT orbital screening threshold (tolorb):   1.0D-07

 Orbital guess generated from atomic densities.

 Initial occupancy:   3   1   1   0

 NELEC=   10   SYM=1   MS2= 0   THRE=1.0D-07   THRD=1.0D-06   THRG=1.0D-06  HFMA2=F  DIIS_START=2   DIIS_MAX=10   DIIS_INCORE=F

 Level shifts:    0.00 (CLOSED)    0.00 (OPEN)    0.30 (GAP_MIN)

 ITER           ETOT              DE          GRAD        DDIFF     DIIS  NEXP   TIME(IT)  TIME(TOT)  DIAG
   1      -76.33305120     -76.33305120     0.00D+00     0.15D+00     0     0       0.05      0.21    start
   2      -76.26166778       0.07138342     0.49D-01     0.53D-01     1     0       0.01      0.22    diag
   3      -76.40949486      -0.14782708     0.70D-01     0.32D-01     2     0       0.01      0.23    diag
   4      -76.40957014      -0.00007528     0.15D-02     0.76D-03     3     0       0.01      0.24    diag
   5      -76.40957257      -0.00000243     0.28D-03     0.19D-03     4     0       0.02      0.26    diag
   6      -76.40957267      -0.00000010     0.50D-04     0.34D-04     5     0       0.01      0.27    diag
   7      -76.40957267      -0.00000000     0.35D-05     0.34D-05     6     0       0.01      0.28    diag
   8      -76.40957267      -0.00000000     0.33D-06     0.17D-06     7     0       0.01      0.29    fixocc
   9      -76.40957267       0.00000000     0.84D-08     0.11D-07     0     0       0.02      0.31    diag

 Final occupancy:   3   1   1   0

 !RKS STATE 1.1 Energy                -76.409572671598
  RKS One-electron energy            -123.178524130001
  RKS Two-electron energy              45.151604539907
  RKS Kinetic energy                   76.314719358750
  RKS Nuclear energy                    9.157116040206
  RKS Virial quotient                  -1.001242922907
 SCF exchange energy                   -8.96207777   Factor= 0.2000
 Density functional                    -7.53976912     B88=-9.00859631 DIRAC=-8.13863070 LYP=-0.34089277 VWN5=-0.66508513

 !RKS STATE 1.1 Dipole moment           0.00000000     0.00000000     0.78224359
 Dipole moment /Debye                   0.00000000     0.00000000     1.98826489

 Orbital energies:

           1.1          2.1          3.1          4.1          5.1
    -19.095615    -0.995352    -0.361856     0.032943     0.411997

           1.2          2.2          3.2
     -0.294333     0.768590     1.491921

           1.3          2.3          3.3
     -0.528342     0.106996     0.393010

           1.4          2.4
      1.255773     3.180245


 HOMO      1.2    -0.294333 =      -8.0092eV
 LUMO      4.1     0.032943 =       0.8964eV
 LUMO-HOMO         0.327277 =       8.9057eV

 Orbitals saved in record  2100.2


 **********************************************************************************************************************************
 DATASETS  * FILE   NREC   LENGTH (MB)   RECORD NAMES
              1      20       28.87       500      610      700      900      950      970     1000      129      960     1100   
                                          VAR    BASINP    GEOM    SYMINP    ZMAT    AOBASIS   BASIS     P2S    ABASIS      S 
                                         1400     1410     1200     1210     1080     1600     1650     1300     1700     1800   
                                           T        V       H0       H01     AOSYM     SMH    MOLCAS    ERIS     OPER     GRID   

              2       5        0.39       700     1000      520     1800     2100   
                                         GEOM     BASIS   MCVARS    GRID      RKS  

 PROGRAMS   *        TOTAL    KS-SCF       INT
 CPU TIMES  *         0.81      0.43      0.26
 REAL TIME  *         0.92 SEC
 DISK USED  *        33.43 MB
 **********************************************************************************************************************************


 PROGRAM * OPT (Geometry optimization)     Authors: F. Eckert and H.-J. Werner


 BFGS update of hessian

 *** Long output written to logfile /home/zwa/Overlap_Integral_Project/overlap_integral_gaussian/h20cal/b3lyp/h2o.log ***


 Geometry optimization using default procedure for command KS-SCF

 Geometry written to block  1 of record 700

 Making model hessian for cartesian coordinates

 Entering Rational Function Geometry Optimization

 ITER.   ENERGY(OLD)    ENERGY(NEW)      DE          GRADMAX     GRADNORM    GRADRMS     STEPMAX     STEPLEN     STEPRMS   CPU-time
   1   -76.40957267   -76.41020689    -0.00063422  0.01437247  0.01711687  0.00570562  0.05851232  0.05897076  0.03404678      0.58
   2   -76.41020689   -76.41032389    -0.00011700  0.00614134  0.00802595  0.00267532  0.03601095  0.03704975  0.02139069      1.14
 Freezing grid
   3   -76.41032389   -76.41032420    -0.00000031  0.00032740  0.00044377  0.00014792  0.00173199  0.00173315  0.00100064      1.70
   4   -76.41032420   -76.41032421    -0.00000001  0.00013280  0.00013622  0.00004541  0.00013940  0.00018291  0.00010560      2.14

 END OF GEOMETRY OPTIMIZATION.

 Geometry written to block  1 of record 700

 Recomputing wavefunction for reoriented structure

 Current geometry (xyz format, in Angstrom)

    3
 KS-SCF000/6-311G(D,P)  ENERGY=-76.41032421
 O          0.0000000000        0.0000000000       -0.0664450093
 H          0.0000000000        0.7572081518        0.5272651221
 H          0.0000000000       -0.7572081518        0.5272651221

 **********************************************************************************************************************************


 **********************************************************************************************************************************
 DATASETS  * FILE   NREC   LENGTH (MB)   RECORD NAMES
              1      20       28.87       500      610      700      900      950      970     1000      129      960     1100   
                                          VAR    BASINP    GEOM    SYMINP    ZMAT    AOBASIS   BASIS     P2S    ABASIS      S 
                                         1400     1410     1200     1210     1080     1600     1650     1300     1700     1800   
                                           T        V       H0       H01     AOSYM     SMH    MOLCAS    ERIS     OPER     GRID   

              2       5        0.39       700     1000      520     1800     2100   
                                         GEOM     BASIS   MCVARS    GRID      RKS  

 PROGRAMS   *        TOTAL      OPTG    KS-SCF       INT
 CPU TIMES  *         3.35      2.54      0.43      0.26
 REAL TIME  *         3.10 SEC
 DISK USED  *        33.78 MB
 **********************************************************************************************************************************


 PROGRAM * HESSIAN

 PROGRAM * MCKINLEY (Hessian of the energy)     Author: A. Bernhardsson, R. Lindh


 Sorry, DFT hessian not yet implemented

 GLOBAL ERROR fehler on processor   0                                         
