
 Working directory              : /tmp/zwa/molpro.to11ZHxhMI/
 Global scratch directory       : /tmp/zwa/molpro.to11ZHxhMI/
 Wavefunction directory         : /home/zwa/wfu/
 Main file repository           : /tmp/zwa/molpro.to11ZHxhMI/

 id        : liedlgroup

 Nodes     nprocs
 rh2-c724     1
 GA implementation: MPI file
 GA implementation (serial work in mppx): MPI file

 Using customized tuning parameters: mindgm=1; mindgv=20; mindgc=4; mindgr=1; noblas=0; minvec=7
 default implementation of scratch files=df  


 Variables initialized (1015), CPU time= 0.01 sec
 memory,1000,m
 orient,mass
 geometry = {
  O,                 -2.37974678 ,   3.40506324 ,   0.00000000
  H,                 -1.41974678 ,   3.40506324 ,   0.00000000
  H,                 -2.70020136 ,   4.30999907 ,   0.00000000
 }
 mass,iso
 basis=6-311g(d,p)
 ks,b3lyp
 
 optg
 {frequencies, symm=auto,print=0}
 put,molden,h2o.molden
 Commands initialized (834), CPU time= 0.01 sec, 672 directives.
 Default parameters read. Elapsed time= 0.06 sec

 Checking input...
 Passed
1


                                         ***  PROGRAM SYSTEM MOLPRO  ***
                                       Copyright, TTI GmbH Stuttgart, 2015
                                    Version 2022.2 linked Thu Sep 29 12:37:28 2022


 **********************************************************************************************************************************
 LABEL *                                                                                 
  (8 PROC) 64 bit serial version                                                         DATE: 21-Aug-25          TIME: 14:53:14  
 **********************************************************************************************************************************

 SHA1:             51306cdc306ce2a111a2867affebcb289530e0a7
 **********************************************************************************************************************************

 Memory per process:      1000 MW
 Total memory per node:   1000 MW

 GA preallocation disabled
 GA check disabled

 Variable memory set to 1000.0 MW

 ZCENTRE=MASS


 Geometry recognized as XYZ



 Using masses of most abundant isotopes

 **********************************************************************************************************************************
 SETTING BASIS          =    6-311G(D,P)


 Recomputing integrals since basis changed


 Using spherical harmonics

 Library entry O      S 6-311G               selected for orbital group  1
 Library entry O      P 6-311G               selected for orbital group  1
 Library entry O      D 6-311G*              selected for orbital group  1
 Library entry H      S 6-311G               selected for orbital group  2
 Library entry H      P 6-311G**             selected for orbital group  2


 PROGRAM * SEWARD (Integral evaluation for generally contracted gaussian basis sets)     Author: Roland Lindh, 1990

 Geometry written to block  1 of record 700

 Orientation using atomic masses  
 Molecule type: Asymmetric top,     Order of principal axis = 2
 Symmetry elements: X,Y
 Rotational constants:     282.5913843    919.6760006    407.9403386 GHz

 Point group  C2v 



 ATOMIC COORDINATES

 NR  ATOM    CHARGE       X              Y              Z

   1  O       8.00    0.000000000    0.000000000   -0.117177192
   2  H       1.00    0.000000000    1.481499721    0.929843299
   3  H       1.00    0.000000000   -1.481499721    0.929843299

 Bond lengths in Bohr (Angstrom)

 1-2  1.814137077  1-3  1.814137077
     ( 0.959999999)     ( 0.959999999)

 Bond angles

  2-1-3  109.49999976

 NUCLEAR CHARGE:                   10
 NUMBER OF PRIMITIVE AOS:          48
 NUMBER OF SYMMETRY AOS:           47
 NUMBER OF CONTRACTIONS:           30   (   14A1  +    5B1  +    9B2  +    2A2  )
 NUMBER OF INNER CORE ORBITALS:     0   (    0A1  +    0B1  +    0B2  +    0A2  )
 NUMBER OF OUTER CORE ORBITALS:     1   (    1A1  +    0B1  +    0B2  +    0A2  )
 NUMBER OF VALENCE ORBITALS:        6   (    3A1  +    1B1  +    2B2  +    0A2  )


 NUCLEAR REPULSION ENERGY    9.15711604

 Eigenvalues of metric

         1 0.189E-01 0.900E-01 0.114E+00 0.151E+00 0.288E+00 0.441E+00 0.590E+00 0.833E+00
         2 0.215E+00 0.457E+00 0.912E+00 0.118E+01 0.228E+01
         3 0.399E-01 0.994E-01 0.122E+00 0.402E+00 0.562E+00 0.835E+00 0.125E+01 0.156E+01
         4 0.646E+00 0.132E+01


 Contracted 2-electron integrals neglected if value below      1.0D-11
 AO integral compression algorithm  1   Integral accuracy      1.0D-11

     0.524 MB (compressed) written to integral file ( 74.1%)


 NUMBER OF SORTED TWO-ELECTRON INTEGRALS:      32916.     BUFFER LENGTH:  32768
 NUMBER OF SEGMENTS:   1  SEGMENT LENGTH:      32916      RECORD LENGTH: 524288

 Memory used in sort:       0.59 MW

 SORT1 READ       47172. AND WROTE       30106. INTEGRALS IN      1 RECORDS. CPU TIME:     0.00 SEC, REAL TIME:     0.00 SEC
 SORT2 READ       30106. AND WROTE       32916. INTEGRALS IN      2 RECORDS. CPU TIME:     0.01 SEC, REAL TIME:     0.01 SEC

 FILE SIZES:   FILE 1:    30.5 MBYTE,  FILE 4:     4.2 MBYTE,   TOTAL:     34.8 MBYTE

 OPERATOR DM      FOR CENTER  0  COORDINATES:    0.000000    0.000000    0.000000


 **********************************************************************************************************************************
 DATASETS  * FILE   NREC   LENGTH (MB)   RECORD NAMES
              1      19       28.78       500      610      700      900      950      970     1000      129      960     1100   
                                          VAR    BASINP    GEOM    SYMINP    ZMAT    AOBASIS   BASIS     P2S    ABASIS      S 
                                         1400     1410     1200     1210     1080     1600     1650     1300     1700   
                                           T        V       H0       H01     AOSYM     SMH    MOLCAS    ERIS     OPER   

 PROGRAMS   *        TOTAL       INT
 CPU TIMES  *         0.35      0.23
 REAL TIME  *         0.64 SEC
 DISK USED  *        33.43 MB
 **********************************************************************************************************************************


 Program * Restricted Kohn-Sham

 Density functional group B3LYP=B88+DIRAC+LYP+VWN5
 Functional: B88(Automatically generated (new) B88)                            Gradient terms: 1
 Functional: DIRAC(Automatically generated (new) DIRAC)                        Gradient terms: 0
 Functional: LYP(Automatically generated (new) LYP)                            Gradient terms: 1
 Functional: VWN5(Automatically generated (new) VWN5)                          Gradient terms: 0

 Exact exchange will be calculated, factor:  0.2000
 Functional: B88                    Factor:  0.7200
 Functional: DIRAC                  Factor:  0.0800
 Functional: LYP                    Factor:  0.8100
 Functional: VWN5                   Factor:  0.1900


 Setting radial_scaling=1d0
 Radial grid threshold:                     5.0D-07
 Global grid threshold:                     1.0D-06
 Angular grid threshold:                    1.0D-07
 Fac_Neighbour:                                 4.0
 Size adjustment in partitioning scheme:   TREUTLER
 Skip grid points with weights lower than:  1.0D-20
 Grid orientation:                           T

 Generated new metagrid on record  1800.2 with target accuracy 1.0D-06 and 3012 points in CPU time    0.1
 Computed new grid on record 1800.1 in CPU time    0.1

 DFT orbital screening threshold (tolorb):   1.0D-07

 Orbital guess generated from atomic densities.

 Initial occupancy:   3   1   1   0

 NELEC=   10   SYM=1   MS2= 0   THRE=1.0D-07   THRD=1.0D-06   THRG=1.0D-06  HFMA2=F  DIIS_START=2   DIIS_MAX=10   DIIS_INCORE=F

 Level shifts:    0.00 (CLOSED)    0.00 (OPEN)    0.30 (GAP_MIN)

 ITER           ETOT              DE          GRAD        DDIFF     DIIS  NEXP   TIME(IT)  TIME(TOT)  DIAG
   1      -76.33305120     -76.33305120     0.00D+00     0.15D+00     0     0       0.03      0.19    start
   2      -76.26166778       0.07138342     0.49D-01     0.53D-01     1     0       0.01      0.20    diag
   3      -76.40949486      -0.14782708     0.70D-01     0.32D-01     2     0       0.01      0.21    diag
   4      -76.40957014      -0.00007528     0.15D-02     0.76D-03     3     0       0.02      0.23    diag
   5      -76.40957257      -0.00000243     0.28D-03     0.19D-03     4     0       0.01      0.24    diag
   6      -76.40957267      -0.00000010     0.50D-04     0.34D-04     5     0       0.01      0.25    diag
   7      -76.40957267      -0.00000000     0.35D-05     0.34D-05     6     0       0.01      0.26    diag
   8      -76.40957267      -0.00000000     0.33D-06     0.17D-06     7     0       0.02      0.28    fixocc
   9      -76.40957267       0.00000000     0.84D-08     0.11D-07     0     0       0.01      0.29    diag

 Final occupancy:   3   1   1   0

 !RKS STATE 1.1 Energy                -76.409572671598
  RKS One-electron energy            -123.178524130001
  RKS Two-electron energy              45.151604539907
  RKS Kinetic energy                   76.314719358750
  RKS Nuclear energy                    9.157116040206
  RKS Virial quotient                  -1.001242922907
 SCF exchange energy                   -8.96207777   Factor= 0.2000
 Density functional                    -7.53976912     B88=-9.00859631 DIRAC=-8.13863070 LYP=-0.34089277 VWN5=-0.66508513

 !RKS STATE 1.1 Dipole moment           0.00000000     0.00000000     0.78224359
 Dipole moment /Debye                   0.00000000     0.00000000     1.98826489

 Orbital energies:

           1.1          2.1          3.1          4.1          5.1
    -19.095615    -0.995352    -0.361856     0.032943     0.411997

           1.2          2.2          3.2
     -0.294333     0.768590     1.491921

           1.3          2.3          3.3
     -0.528342     0.106996     0.393010

           1.4          2.4
      1.255773     3.180245


 HOMO      1.2    -0.294333 =      -8.0092eV
 LUMO      4.1     0.032943 =       0.8964eV
 LUMO-HOMO         0.327277 =       8.9057eV

 Orbitals saved in record  2100.2


 **********************************************************************************************************************************
 DATASETS  * FILE   NREC   LENGTH (MB)   RECORD NAMES
              1      20       28.87       500      610      700      900      950      970     1000      129      960     1100   
                                          VAR    BASINP    GEOM    SYMINP    ZMAT    AOBASIS   BASIS     P2S    ABASIS      S 
                                         1400     1410     1200     1210     1080     1600     1650     1300     1700     1800   
                                           T        V       H0       H01     AOSYM     SMH    MOLCAS    ERIS     OPER     GRID   

              2       5        0.39       700     1000      520     1800     2100   
                                         GEOM     BASIS   MCVARS    GRID      RKS  

 PROGRAMS   *        TOTAL    KS-SCF       INT
 CPU TIMES  *         0.76      0.41      0.23
 REAL TIME  *         0.90 SEC
 DISK USED  *        33.43 MB
 **********************************************************************************************************************************


 PROGRAM * OPT (Geometry optimization)     Authors: F. Eckert and H.-J. Werner


 BFGS update of hessian

 *** Long output written to logfile /home/zwa/Overlap_Integral_Project/overlap_integral_gaussian/h20cal/b3lyp/h2o.log ***


 Geometry optimization using default procedure for command KS-SCF

 Geometry written to block  1 of record 700

 Making model hessian for cartesian coordinates

 Entering Rational Function Geometry Optimization

 ITER.   ENERGY(OLD)    ENERGY(NEW)      DE          GRADMAX     GRADNORM    GRADRMS     STEPMAX     STEPLEN     STEPRMS   CPU-time
   1   -76.40957267   -76.41020689    -0.00063422  0.01437247  0.01711687  0.00570562  0.05851232  0.05897076  0.03404678      0.58
   2   -76.41020689   -76.41032389    -0.00011700  0.00614134  0.00802595  0.00267532  0.03601095  0.03704975  0.02139069      1.14
 Freezing grid
   3   -76.41032389   -76.41032420    -0.00000031  0.00032740  0.00044377  0.00014792  0.00173199  0.00173315  0.00100064      1.70
   4   -76.41032420   -76.41032421    -0.00000001  0.00013280  0.00013622  0.00004541  0.00013940  0.00018291  0.00010560      2.14

 END OF GEOMETRY OPTIMIZATION.

 Geometry written to block  1 of record 700

 Recomputing wavefunction for reoriented structure

 Current geometry (xyz format, in Angstrom)

    3
 KS-SCF000/6-311G(D,P)  ENERGY=-76.41032421
 O          0.0000000000        0.0000000000       -0.0664450093
 H          0.0000000000        0.7572081518        0.5272651221
 H          0.0000000000       -0.7572081518        0.5272651221

 **********************************************************************************************************************************


 **********************************************************************************************************************************
 DATASETS  * FILE   NREC   LENGTH (MB)   RECORD NAMES
              1      20       28.87       500      610      700      900      950      970     1000      129      960     1100   
                                          VAR    BASINP    GEOM    SYMINP    ZMAT    AOBASIS   BASIS     P2S    ABASIS      S 
                                         1400     1410     1200     1210     1080     1600     1650     1300     1700     1800   
                                           T        V       H0       H01     AOSYM     SMH    MOLCAS    ERIS     OPER     GRID   

              2       5        0.39       700     1000      520     1800     2100   
                                         GEOM     BASIS   MCVARS    GRID      RKS  

 PROGRAMS   *        TOTAL      OPTG    KS-SCF       INT
 CPU TIMES  *         3.28      2.52      0.41      0.23
 REAL TIME  *         3.07 SEC
 DISK USED  *        33.78 MB
 **********************************************************************************************************************************


 PROGRAM * HESSIAN

 Computing numerical hessian using default procedure for command KS-SCF

 Symmetry elements for unique displacements: X  Y  

 Using AUTO symmetry option

 Running default procedure: KS-SCF000


 Recomputing wavefunction at reference geometry

 Numerically approximating hessian using central gradient differences

 Task list generated. Total number of displacements:      9

    5 tasks completed, CPU=10s Elapsed=3s

 Numerical KS-SCF000 hessian completed. CPU-time:    27.36 sec, Elapsed:     6.50 sec

 KS-SCF hessian saved to record  5300.2

 PROGRAM * FREQUENCIES (Calculation of harmonic vibrational spectra for KS-SCF)


 Permanent Dipole Moment [debye]
   1-  3    0.000000    0.000000    2.069421

 Dipole Moment Norm    2.0694210 [debye]

 Dipole Moment Derivatives [debye/ang]
              1             2             3             4             5             6             7             8
    1   -3.48549604    0.00000000    0.00000000    1.74276691    0.00000000    0.00000000    1.74276691    0.00000000
    2    0.00000000   -2.05381417    0.00000000    0.00000000    1.02686197   -0.56128150    0.00000000    1.02686197
    3    0.00000000    0.00000000   -1.49535675    0.00000000   -0.32229157    0.74764571    0.00000000    0.32229157
              9
    1    0.00000000
    2    0.56128150
    3    0.74764571

 Projecting out rotations and translations

 Force Constants (Second Derivatives of the Energy) in [a.u.]
                             OX1         OY1         OZ1         HX2         HY2     
           OX1           0.0000000
           OY1           0.0000000   0.6677630
           OZ1           0.0000000   0.0000000   0.4568842
           HX2           0.0000000   0.0000000   0.0000000   0.0000000
           HY2           0.0000000  -0.3338815  -0.2016586   0.0000000   0.3658462
           HZ2           0.0000000  -0.2617891  -0.2284421   0.0000000   0.2317238
           HX3           0.0000000   0.0000000   0.0000000  -0.0000000   0.0000000
           HY3           0.0000000  -0.3338815   0.2016586   0.0000000  -0.0319647
           HZ3           0.0000000   0.2617891  -0.2284421   0.0000000  -0.0300652
                             HZ2         HX3         HY3         HZ3     
           HZ2           0.2168526
           HX3           0.0000000   0.0000000
           HY3           0.0300652   0.0000000   0.3658462
           HZ3           0.0115895   0.0000000  -0.2317238   0.2168526


 Atomic Masses
   1-  3   15.994910    1.007825    1.007825

 Mass weighted Second Derivative Matrix
                             OX1         OY1         OZ1         HX2         HY2     
           OX1           0.0000000
           OY1           0.0000000   0.0417485
           OZ1           0.0000000   0.0000000   0.0285643
           HX2           0.0000000   0.0000000   0.0000000   0.0000000
           HY2           0.0000000  -0.0831589  -0.0502265   0.0000000   0.3630057
           HZ2           0.0000000  -0.0652031  -0.0568974   0.0000000   0.2299247
           HX3           0.0000000   0.0000000   0.0000000  -0.0000000   0.0000000
           HY3           0.0000000  -0.0831589   0.0502265   0.0000000  -0.0317166
           HZ3           0.0000000   0.0652031  -0.0568974   0.0000000  -0.0298318
                             HZ2         HX3         HY3         HZ3     
           HZ2           0.2151689
           HX3           0.0000000   0.0000000
           HY3           0.0298318   0.0000000   0.3630057
           HZ3           0.0114995   0.0000000  -0.2299247   0.2151689


 Mass Weighted 2nd Derivative Matrix Eigenvalues
   1-  9    0.000000    0.000000    0.000000    0.000000    0.000000    0.000000    0.101489    0.548466    0.576707

 Mass Weighted 2nd Derivative Matrix Eigenvectors
              1             2             3             4             5             6             7             8
    1    0.00000000    0.00000000    0.00000000    1.00000000    0.00000000    0.00000000    0.00000000    0.00000000
    2   -0.31607635   -0.02982076    0.88952066    0.00000000   -0.01105813    0.18827121    0.00000000    0.00000000
    3    0.64731078    0.48875235    0.14990220    0.00000000   -0.00241802    0.45576143   -0.27096181   -0.19620039
    4   -0.29927216   -0.08254177   -0.22548495    0.00000000    0.70916479    0.59149377    0.00000000    0.00000000
    5   -0.26347529    0.36466008    0.09056763    0.00000000   -0.00104628   -0.04664040   -0.41470658    0.57272895
    6    0.39732824   -0.35194362    0.20689222    0.00000000   -0.00281272    0.23416137    0.53972984    0.39081229
    7    0.29929401    0.08256831    0.24269595    0.00000000    0.70494292   -0.58971156    0.00000000    0.00000000
    8   -0.26347529    0.36466008    0.09056763    0.00000000   -0.00104628   -0.04664040    0.41470658   -0.57272895
    9   -0.07235732    0.59731309   -0.13163647    0.00000000    0.00159880   -0.00535442    0.53972984    0.39081229
              9
    1    0.00000000
    2   -0.26905600
    3    0.00000000
    4    0.00000000
    5    0.53593365
    6    0.42021370
    7    0.00000000
    8    0.53593365
    9   -0.42021370

   Low Vibration      Wavenumber
        Nr             [1/cm] 
        1                0.00
        2                0.00
        3                0.00
        4                0.00
        5                0.00
        6                0.00

     Vibration        Wavenumber
        Nr             [1/cm] 
        1             1637.63
        2             3806.97
        3             3903.75

 FREQUENCIES * CALCULATION OF NORMAL MODES FOR KS-SCF


 Atomic Coordinates

  Nr  Atom  Charge       X              Y              Z

   1   O     8.00    0.000000000    0.000000000   -0.125562870
   2   H     1.00    0.000000000    1.430916026    0.996386676
   3   H     1.00    0.000000000   -1.430916026    0.996386676

 Gradient norm at reference geometry: 0.25742D-03

 Normal Modes

                              1 A1        2 A1        3 B2 
 Wavenumbers [cm-1]         1637.63     3806.97     3903.75
 Intensities [km/mol]         57.99        3.50       24.71
 Intensities [relative]      100.00        6.03       42.60
           OX1              0.00000     0.00000     0.00000
           OY1              0.00000     0.00000    -0.06727
           OZ1             -0.06775    -0.04906    -0.00000
           HX2              0.00000     0.00000     0.00000
           HY2             -0.41309     0.57050     0.53385
           HZ2              0.53763     0.38929     0.41858
           HX3             -0.00000    -0.00000    -0.00000
           HY3              0.41309    -0.57050     0.53385
           HZ3              0.53763     0.38929    -0.41858


 Normal Modes of low/zero frequencies

                                  1           2           3           4           5
 Wavenumbers [cm-1]            0.00        0.00        0.00        0.00        0.00
 Intensities [km/mol]          0.00        0.00        0.00        0.00        0.00
 Intensities [relative]        0.00        0.00        0.00        0.00        0.00
           OX1             -0.00000    -0.00000    -0.00000     0.25004     0.00000
           OY1             -0.07903    -0.00746     0.22242     0.00000    -0.00276
           OZ1              0.16185     0.12221     0.03748     0.00000    -0.00060
           HX2             -0.29811    -0.08222    -0.22461    -0.00000     0.70641
           HY2             -0.26245     0.36324     0.09022     0.00000    -0.00104
           HZ2              0.39578    -0.35057     0.20609     0.00000    -0.00280
           HX3              0.29813     0.08225     0.24175    -0.00000     0.70220
           HY3             -0.26245     0.36324     0.09022     0.00000    -0.00104
           HZ3             -0.07208     0.59499    -0.13112    -0.00000     0.00159

                                  6
 Wavenumbers [cm-1]            0.00
 Intensities [km/mol]          0.00
 Intensities [relative]        0.00
           OX1              0.00000
           OY1              0.04708
           OZ1              0.11396
           HX2              0.58919
           HY2             -0.04646
           HZ2              0.23325
           HX3             -0.58742
           HY3             -0.04646
           HZ3             -0.00533


 Frequencies dumped to record   5400.2

 Zero point energy:  0.02129709 [H]     4674.17 [1/CM]       55.92 [KJ/MOL]
 Frequency information read from record  5400.2

 Recomputing wavefunction at initial geometry


 **********************************************************************************************************************************
 DATASETS  * FILE   NREC   LENGTH (MB)   RECORD NAMES
              1      20       29.08       500      610      700      900      950      970     1000      129      960     1100   
                                          VAR    BASINP    GEOM    SYMINP    ZMAT    AOBASIS   BASIS     P2S    ABASIS      S 
                                         1400     1410     1200     1210     1080     1600     1650     1300     1700     1800   
                                           T        V       H0       H01     AOSYM     SMH    MOLCAS    ERIS     OPER     GRID   

              2       9        0.60       700     1000      520     1800     2100      701     5300     5450     5400   
                                         GEOM     BASIS   MCVARS    GRID      RKS     GEOM     HESS     NMOD     FREQ   

 PROGRAMS   *        TOTAL      FREQ      OPTG    KS-SCF       INT
 CPU TIMES  *        30.85     27.57      2.52      0.41      0.23
 REAL TIME  *        10.29 SEC
 DISK USED  *        34.92 MB
 **********************************************************************************************************************************

 Dump information in style MOLDEN to h2o.molden                                                                      

 Molecular orbitals read from record     2100.2  Type=RKS/CANONICAL  
 Occupation numbers read from record     2100.2  Type=RKS/RKS  
 Orbital energies read from record       2100.2  Type=RKS/CANONICAL  
 Redundancy group numbers read from rec  2100.2  Type=RKS/RKS  

 DUMP ORBITAL  1.1 AS ORBITAL    1  occ=    2.0000  eig=  -19.0991  GROUP=   2
 DUMP ORBITAL  2.1 AS ORBITAL    2  occ=    2.0000  eig=   -0.9990  GROUP=   2
 DUMP ORBITAL  1.3 AS ORBITAL    3  occ=    2.0000  eig=   -0.5180  GROUP=   2
 DUMP ORBITAL  3.1 AS ORBITAL    4  occ=    2.0000  eig=   -0.3730  GROUP=   2
 DUMP ORBITAL  1.2 AS ORBITAL    5  occ=    2.0000  eig=   -0.2959  GROUP=   2

 Total charge:      10.000000
 Frequency information read from record  5400.2

 **********************************************************************************************************************************

 B3LYP/6-311G(D,P) energy=    -76.410324209483

    OPTG(KS-SCF)          KS-SCF
    -76.41032421    -76.40957267
 **********************************************************************************************************************************
 Molpro calculation terminated
