
 Working directory              : /tmp/zwa/molpro.x1J1uXbYHN/
 Global scratch directory       : /tmp/zwa/molpro.x1J1uXbYHN/
 Wavefunction directory         : /home/zwa/wfu/
 Main file repository           : /tmp/zwa/molpro.x1J1uXbYHN/

 id        : liedlgroup

 Nodes     nprocs
 rh2-c724     4
 GA implementation: MPI file
 GA implementation (serial work in mppx): MPI file

 Using customized tuning parameters: mindgm=1; mindgv=20; mindgc=4; mindgr=1; noblas=0; minvec=7
 default implementation of scratch files=sf  


 Variables initialized (1015), CPU time= 0.03 sec
 memory, 1000, m                                                                  ! Memory Requirements
  orient,mass
  geometry = {
 C  ,               -2.73454681  ,  0.27740193 ,  -0.86786766
  O  ,               -4.16454681 ,   0.27741955 ,  -0.86786766
  O  ,               -2.08450472 ,   1.06960417 ,  -2.24001700
  O ,                -2.02861328 ,  -1.73988416 ,  -0.57661140
  H ,                -2.31978234 ,  -1.03822173 ,   1.15326252
  C ,                -2.41622609 ,   1.95381089 ,  -3.50820336
  H ,                -2.05955325 ,   2.45820908 ,  -2.63455185
  H ,                -2.05955325 ,   2.45820908,   -4.38185486
  H ,                -3.07982044 ,   2.15580029 ,  -3.79789920
  }
 
  mass, iso
  basis=6-311g(d,p)
 
  {hf
  start,atden}
 
  optg
                                                                                 !{frequencies, symm=auto, print=0,analytical}
                                                                                 !put,molden,came.molden
 Commands initialized (834), CPU time= 0.03 sec, 672 directives.
 Default parameters read. Elapsed time= 0.54 sec

 Checking input...
 Passed
1


                                         ***  PROGRAM SYSTEM MOLPRO  ***
                                       Copyright, TTI GmbH Stuttgart, 2015
                                    Version 2022.2 linked Thu Sep 29 12:37:28 2022


 **********************************************************************************************************************************
 LABEL *                                                                                 
  (8 PROC) 64 bit mpp version                                                            DATE: 06-Aug-25          TIME: 14:52:48  
 **********************************************************************************************************************************

 SHA1:             51306cdc306ce2a111a2867affebcb289530e0a7
 **********************************************************************************************************************************

 Memory per process:      1000 MW
 Total memory per node:   4000 MW

 GA preallocation disabled
 GA check disabled

 Variable memory set to 1000.0 MW

 ZCENTRE=MASS


 Geometry recognized as XYZ



 Using masses of most abundant isotopes

 **********************************************************************************************************************************
 SETTING BASIS          =    6-311G(D,P)


 Recomputing integrals since basis changed


 Using spherical harmonics

 Library entry C      S 6-311G               selected for orbital group  1
 Library entry C      P 6-311G               selected for orbital group  1
 Library entry C      D 6-311G*              selected for orbital group  1
 Library entry O      S 6-311G               selected for orbital group  2
 Library entry O      P 6-311G               selected for orbital group  2
 Library entry O      D 6-311G*              selected for orbital group  2
 Library entry H      S 6-311G               selected for orbital group  3
 Library entry H      P 6-311G**             selected for orbital group  3


 PROGRAM * SEWARD (Integral evaluation for generally contracted gaussian basis sets)     Author: Roland Lindh, 1990

 Geometry written to block  1 of record 700

 Orientation using atomic masses  
 Molecule type: Asymmetric top
 Rotational constants:       1.8840716      2.3159913      7.6216081 GHz

 Point group  C1  



 ATOMIC COORDINATES

 NR  ATOM    CHARGE       X              Y              Z

   1  C       6.00    0.816228987   -0.433380387   -1.028867224
   2  O       8.00   -0.325936471   -2.878341697   -1.170616030
   3  O       8.00    0.448451253    0.927204706    1.884419808
   4  O       8.00   -0.506001288    1.839362696   -4.143532155
   5  H       1.00    2.287163348   -0.001276237   -5.391513537
   6  C       6.00   -0.465743660    0.498364327    4.696637287
   7  H       1.00    1.515555982    0.339253399    4.325628399
   8  H       1.00   -0.745604112    1.266835815    6.545864637
   9  H       1.00   -1.144076538   -0.604626918    5.280773570

 Bond lengths in Bohr (Angstrom)

 1-2  2.702308358  1-3  3.236308636  3-6  2.988013313  6-7  2.022006962  6-8  2.022006947
     ( 1.430000000)     ( 1.712580777)     ( 1.581188551)     ( 1.070000005)     ( 1.069999996)

 6-9  1.420542283
     ( 0.751718603)

 Bond angles

  1-3-6  145.25112279   2-1-3  112.30661763   3-6-7   62.53598848   3-6-8  148.05375832

  3-6-9  130.13189967   7-6-8  109.47125087   7-6-9  118.83276242   8-6-9   81.54311491

 NUCLEAR CHARGE:                   40
 NUMBER OF PRIMITIVE AOS:         192
 NUMBER OF SYMMETRY AOS:          187
 NUMBER OF CONTRACTIONS:          114   (  114A   )
 NUMBER OF INNER CORE ORBITALS:     0   (    0A   )
 NUMBER OF OUTER CORE ORBITALS:     5   (    5A   )
 NUMBER OF VALENCE ORBITALS:       24   (   24A   )


 NUCLEAR REPULSION ENERGY  146.89842739


 Eigenvalues of metric

         1 0.528E-02 0.104E-01 0.173E-01 0.190E-01 0.208E-01 0.317E-01 0.343E-01 0.362E-01


 Contracted 2-electron integrals neglected if value below      1.0D-11
 AO integral compression algorithm  1   Integral accuracy      1.0D-11

     56.099 MB (compressed) written to integral file ( 29.9%)

     Node minimum: 10.748 MB, node maximum: 17.302 MB


 NUMBER OF SORTED TWO-ELECTRON INTEGRALS:    5369364.     BUFFER LENGTH:  32768
 NUMBER OF SEGMENTS:   1  SEGMENT LENGTH:    5369364      RECORD LENGTH: 524288

 Memory used in sort:       5.93 MW

 SORT1 READ    23490972. AND WROTE     3220876. INTEGRALS IN     10 RECORDS. CPU TIME:     0.87 SEC, REAL TIME:     1.64 SEC
 SORT2 READ    12838337. AND WROTE    21487290. INTEGRALS IN    164 RECORDS. CPU TIME:     0.24 SEC, REAL TIME:     0.44 SEC

 Node minimum:     5369364.  Node maximum:     5374281. integrals

 OPERATOR DM      FOR CENTER  0  COORDINATES:    0.000000    0.000000    0.000000


 **********************************************************************************************************************************
 DATASETS  * FILE   NREC   LENGTH (MB)   RECORD NAMES
              1      18       29.18       500      610      700      900      950      970     1000      129      960     1100   
                                          VAR    BASINP    GEOM    SYMINP    ZMAT    AOBASIS   BASIS     P2S    ABASIS      S 
                                         1400     1410     1200     1210     1080     1600     1650     1700   
                                           T        V       H0       H01     AOSYM     SMH    MOLCAS    OPER   

 PROGRAMS   *        TOTAL       INT
 CPU TIMES  *         5.52      5.00
 REAL TIME  *         6.12 SEC
 DISK USED  *        29.59 MB (local),      323.70 MB (total)
 GA USED    *         0.00 MB       (max)       0.00 MB       (current)
 **********************************************************************************************************************************


 Program * Restricted Hartree-Fock

 Orbital guess generated from atomic densities.

 Initial occupancy:  20

 NELEC=   40   SYM=1   MS2= 0   THRE=1.0D-08   THRD=1.0D-06   THRG=1.0D-06  HFMA2=F  DIIS_START=2   DIIS_MAX=10   DIIS_INCORE=F

 Level shifts:    0.00 (CLOSED)    0.00 (OPEN)    0.30 (GAP_MIN)

 ITER           ETOT              DE          GRAD        DDIFF     DIIS  NEXP   TIME(IT)  TIME(TOT)  DIAG
   1     -301.29911752    -301.29911752     0.00D+00     0.49D-01     0     0       2.23      6.29    start
   2     -301.17286320       0.12625432     0.14D-01     0.16D-01     1     0       5.25     11.54    diag
   3     -301.77834446      -0.60548126     0.20D-01     0.89D-02     2     0       4.43     15.97    diag
   4     -301.79004386      -0.01169940     0.19D-02     0.24D-02     3     0       4.02     19.99    diag
   5     -301.80026045      -0.01021659     0.23D-02     0.12D-02     4     0       4.53     24.52    diag
   6     -301.80385651      -0.00359606     0.79D-03     0.86D-03     5     0       4.51     29.03    diag
   7     -301.80568483      -0.00182832     0.41D-03     0.57D-03     6     0       4.67     33.70    diag
   8     -301.80788667      -0.00220184     0.32D-03     0.85D-03     7     0       5.16     38.86    fixocc
   9     -301.80968402      -0.00179735     0.23D-03     0.10D-02     8     0       4.89     43.75    diag
  10     -301.81027458      -0.00059056     0.14D-03     0.57D-03     9     0       4.16     47.91    diag/orth
  11     -301.81051794      -0.00024336     0.97D-04     0.35D-03     9     0       1.53     49.44    diag
  12     -301.81065102      -0.00013308     0.63D-04     0.36D-03     9     0       1.82     51.26    diag
  13     -301.81067615      -0.00002513     0.34D-04     0.11D-03     9     0       3.90     55.16    diag
  14     -301.81068992      -0.00001377     0.24D-04     0.93D-04     9     0       3.61     58.77    diag
  15     -301.81069697      -0.00000705     0.18D-04     0.52D-04     9     0       3.98     62.75    diag
  16     -301.81070237      -0.00000541     0.13D-04     0.50D-04     9     0       4.03     66.78    diag
  17     -301.81070683      -0.00000446     0.11D-04     0.69D-04     9     0       3.81     70.59    diag
  18     -301.81070775      -0.00000092     0.62D-05     0.27D-04     9     0       2.97     73.56    diag
  19     -301.81070803      -0.00000028     0.34D-05     0.17D-04     9     0       3.63     77.19    diag
  20     -301.81070809      -0.00000006     0.20D-05     0.72D-05     9     0       1.93     79.12    diag/orth
  21     -301.81070810      -0.00000001     0.87D-06     0.22D-05     9     0       2.22     81.34    diag
  22     -301.81070811      -0.00000000     0.48D-06     0.16D-05     9     0       4.24     85.58    diag
  23     -301.81070811      -0.00000000     0.29D-06     0.66D-06     9     0       4.31     89.89    diag
  24     -301.81070811      -0.00000000     0.18D-06     0.21D-06     0     0       3.96     93.85    diag

 Final occupancy:  20

 !RHF STATE 1.1 Energy               -301.810708106621
  RHF One-electron energy            -706.113021309754
  RHF Two-electron energy             257.403885810998
  RHF Kinetic energy                  301.361400605101
  RHF Nuclear energy                  146.898427392134
  RHF Virial quotient                  -1.001490925847

 !RHF STATE 1.1 Dipole moment           0.77769221     0.16589594     0.20090974
 Dipole moment /Debye                   1.97669642     0.42166541     0.51066163

 Orbital energies:

           1.1          2.1          3.1          4.1          5.1          6.1          7.1          8.1          9.1         10.1
    -20.690746   -20.606648   -20.590844   -11.498239   -11.273024    -1.327042    -1.286920    -1.248779    -1.037046    -0.803579

          11.1         12.1         13.1         14.1         15.1         16.1         17.1         18.1         19.1         20.1
     -0.686411    -0.604191    -0.582411    -0.556959    -0.550122    -0.539112    -0.484837    -0.471482    -0.442192    -0.372043

          21.1         22.1
     -0.100072    -0.022178


 HOMO     20.1    -0.372043 =     -10.1238eV
 LUMO     21.1    -0.100072 =      -2.7231eV
 LUMO-HOMO         0.271971 =       7.4007eV

 Orbitals saved in record  2100.2


 **********************************************************************************************************************************
 DATASETS  * FILE   NREC   LENGTH (MB)   RECORD NAMES
              1      18       29.18       500      610      700      900      950      970     1000      129      960     1100   
                                          VAR    BASINP    GEOM    SYMINP    ZMAT    AOBASIS   BASIS     P2S    ABASIS      S 
                                         1400     1410     1200     1210     1080     1600     1650     1700   
                                           T        V       H0       H01     AOSYM     SMH    MOLCAS    OPER   

              2       4        0.69       700     1000      520     2100   
                                         GEOM     BASIS   MCVARS     RHF  

 PROGRAMS   *        TOTAL    HF-SCF       INT
 CPU TIMES  *        99.54     94.02      5.00
 REAL TIME  *        68.84 SEC
 DISK USED  *        30.82 MB (local),      328.63 MB (total)
 GA USED    *         0.00 MB       (max)       0.00 MB       (current)
 **********************************************************************************************************************************


 PROGRAM * OPT (Geometry optimization)     Authors: F. Eckert and H.-J. Werner


 BFGS update of hessian

 *** Long output written to logfile /home/zwa/Overlap_Integral_Project/overlap_integral_gaussian/molpro_files/CAME/came.log ***


 Geometry optimization using default procedure for command HF-SCF

 Geometry written to block  1 of record 700

 Making model hessian for cartesian coordinates

 Entering Rational Function Geometry Optimization

 ITER.   ENERGY(OLD)    ENERGY(NEW)      DE          GRADMAX     GRADNORM    GRADRMS     STEPMAX     STEPLEN     STEPRMS   CPU-time
   1  -301.81070811  -302.00714778    -0.19643967  0.80717913  1.00727153  0.04796531  0.13144316  0.30000000  0.10000000     96.01
   2  -302.00714778  -302.13845708    -0.13130930  0.26829795  0.56620534  0.02696216  0.17566617  0.30000000  0.10000000    192.50
   3  -302.13845708  -302.24964389    -0.11118682  0.22042734  0.45375785  0.02160752  0.18792420  0.30000000  0.10000000    234.47
   4  -302.24964389  -302.34460267    -0.09495878  0.17097728  0.35873681  0.01708271  0.16665122  0.30000000  0.10000000    290.58
   5  -302.34460267  -302.42888960    -0.08428693  0.22255644  0.31021228  0.01477201  0.21972258  0.30000000  0.10000000    366.97
   6  -302.42888960  -302.49897244    -0.07008284  0.17499843  0.27772564  0.01322503  0.18238715  0.30000000  0.10000000    439.40
   7  -302.49897244  -302.55053741    -0.05156497  0.10683626  0.22368502  0.01065167  0.12905522  0.30000000  0.10000000    505.19
   8  -302.55053741  -302.59247847    -0.04194106  0.08121305  0.17303458  0.00823974  0.14660532  0.30000000  0.10000000    576.47
   9  -302.59247847  -302.63049708    -0.03801861  0.07185945  0.14861113  0.00707672  0.20055213  0.30000000  0.10000000    642.72
  10  -302.63049708  -302.66425436    -0.03375728  0.05413128  0.13261796  0.00631514  0.15467620  0.30000000  0.10000000    714.41
  11  -302.66425436  -302.69247426    -0.02821990  0.05130582  0.11280723  0.00537177  0.15053522  0.30000000  0.10000000    784.99
  12  -302.69247426  -302.71543820    -0.02296394  0.05521182  0.09044119  0.00430672  0.21528468  0.30000000  0.10000000    845.41
  13  -302.71543820  -302.73402866    -0.01859046  0.04583471  0.07549691  0.00359509  0.21770405  0.30000000  0.10000000    918.14
  14  -302.73402866  -302.74763762    -0.01360896  0.03577789  0.06188651  0.00294698  0.21150778  0.30000000  0.10000000    963.21
  15  -302.74763762  -302.75544578    -0.00780815  0.02312295  0.04224699  0.00201176  0.18409705  0.30000000  0.10000000   1007.35
  16  -302.75544578  -302.75913438    -0.00368860  0.01312091  0.02551163  0.00121484  0.24209262  0.30000000  0.10000000   1070.55
  17  -302.75913438  -302.76076837    -0.00163399  0.01041280  0.01797860  0.00085612  0.26156075  0.30000000  0.10000000   1130.95
  18  -302.76076837  -302.76125982    -0.00049145  0.00972914  0.01197532  0.00057025  0.13361385  0.18330220  0.06110073   1201.51
  19  -302.76125982  -302.76155108    -0.00029126  0.00484312  0.00644123  0.00030673  0.13464371  0.17928361  0.05976120   1263.86
  20  -302.76155108  -302.76168472    -0.00013364  0.00188222  0.00376862  0.00017946  0.11291240  0.15233162  0.05077721   1335.17
  21  -302.76168472  -302.76175064    -0.00006592  0.00301402  0.00392032  0.00018668  0.10457420  0.11075036  0.03691679   1395.81
  22  -302.76175064  -302.76181306    -0.00006242  0.00193463  0.00270495  0.00012881  0.12852537  0.12987685  0.04329228   1456.42
  23  -302.76181306  -302.76186977    -0.00005671  0.00117017  0.00236298  0.00011252  0.13675605  0.14129559  0.04709853   1522.48
  24  -302.76186977  -302.76189857    -0.00002880  0.00163857  0.00332264  0.00015822  0.07245646  0.08016614  0.02672205   1576.85
  25  -302.76189857  -302.76190985    -0.00001128  0.00211132  0.00310417  0.00014782  0.04791537  0.05080093  0.01693364   1634.49
  26  -302.76190985  -302.76191238    -0.00000253  0.00061196  0.00127270  0.00006060  0.00503766  0.00970034  0.00323345   1699.69
  27  -302.76191238  -302.76191435    -0.00000197  0.00060167  0.00103956  0.00004950  0.02284271  0.02433584  0.00811195   1764.67
  28  -302.76191435  -302.76191508    -0.00000073  0.00058747  0.00068833  0.00003278  0.00693276  0.00742782  0.00247594   1805.33
  29  -302.76191508  -302.76191539    -0.00000030  0.00035832  0.00042882  0.00002042  0.00610658  0.00638387  0.00212796   1839.29
  30  -302.76191539  -302.76191542    -0.00000003  0.00008654  0.00015444  0.00000735  0.00098923  0.00117135  0.00039045   1895.96

 END OF GEOMETRY OPTIMIZATION.

 Geometry written to block  1 of record 700

 Recomputing wavefunction for reoriented structure

 Current geometry (xyz format, in Angstrom)

    9
 HF-SCF000/6-311G(D,P)  ENERGY=-302.76191542
 C         -0.0000369958       -0.0871497438       -0.4399213425
 O          0.0000237182       -1.2700264165       -0.4466180486
 O          0.0000258203        0.6757703934        0.6194228988
 O          0.0000176667        0.6645511770       -1.5216013421
 H         -0.0003203859        0.0909197350       -2.2712704378
 C         -0.0000155295        0.0184772340        1.8762983308
 H          0.8826438127       -0.5971509782        1.9804028544
 H          0.0001359377        0.8051317938        2.6140518870
 H         -0.8829005491       -0.5968635348        1.9804940498

 **********************************************************************************************************************************


 **********************************************************************************************************************************
 DATASETS  * FILE   NREC   LENGTH (MB)   RECORD NAMES
              1      18       29.18       500      610      700      900      950      970     1000      129      960     1100   
                                          VAR    BASINP    GEOM    SYMINP    ZMAT    AOBASIS   BASIS     P2S    ABASIS      S 
                                         1400     1410     1200     1210     1080     1600     1650     1700   
                                           T        V       H0       H01     AOSYM     SMH    MOLCAS    OPER   

              2       4        0.69       700     1000      520     2100   
                                         GEOM     BASIS   MCVARS     RHF  

 PROGRAMS   *        TOTAL      OPTG    HF-SCF       INT
 CPU TIMES  *      2057.57   1958.03     94.02      5.00
 REAL TIME  *      1486.91 SEC
 DISK USED  *        30.82 MB (local),      402.39 MB (total)
 SF USED    *         0.11 MB
 GA USED    *         0.00 MB       (max)       0.00 MB       (current)
 **********************************************************************************************************************************

 HF/6-311G(D,P)//HF/6-311G(D,P) energy=   -302.761915416727

    OPTG(HF-SCF)          HF-SCF
   -302.76191542   -301.81070811
 **********************************************************************************************************************************
 Molpro calculation terminated
