[Molden Format]
[Molpro variables]
_NUMVAR=  1077.000000000000    
_AVOGAD= 0.6022140760000000E+24
_BOLTZ= 0.1380649000000000E-22
_CLIGHTSI=  299792458.0000000    
_JOULE= 0.4359744722207100E-17
_JPCAL=  4.184000000000000    
_PLANCK= 0.6626070150000000E-33
_BOHR= 0.5291772109030000E-10
_ECHARG= 0.1602176634000000E-18
_ENULL= 0.8854187812800001E-11
_MU= 0.1660539066600000E-26
_EMASS= 0.9109383701500001E-30
_AMU2AU=  1822.888486217313    
_CLIGHT=  29979245800.00000    
_EV= 0.3674932217565494E-01
_KJOULE= 0.3808798847133432E-03
_KJOULE/MOL= 0.3808798847133432E-03
_CM= 0.4556335252912009E-05
_CM-1= 0.4556335252912009E-05
_DEB2SI= 0.3335640951981520E-29
_KCAL= 0.1593601437640628E-02
_KCAL/MOL= 0.1593601437640628E-02
_KELVIN= 0.3166811563455608E-05
_HERTZ= 0.1519829846057038E-15
_HZ= 0.1519829846057038E-15
_TOA= 0.5291772109030000    
_TOANG= 0.5291772109030000    
_TORAD= 0.1745329251994330E-01
_TOCM=  219474.6313631965    
_TODEBYE=  2.541746473194078    
_TOE= 0.4803204712570263E-09
_TOEV=  27.21138624598803    
_TOHERTZ=  6579683920501656.    
_TOHZ=  6579683920501656.    
_TOK=  315775.0248040668    
_TOKCAL=  627.5094740630558    
_TOKELVIN=  315775.0248040668    
_TOKJ=  2625.499639479825    
_TOKJOULE=  2625.499639479825    
_TOKG= 0.1660539066600000E-26
_ANG=  1.889726124625770    
_ANGSTROM=  1.889726124625770    
_RPAREF=  0.000000000000000    
_RPADISS=  0.000000000000000    
_IGNORE_UNDEF=  2.000000000000000    
_STRICTCHECK=  0.000000000000000    
!SEWARD=  0.000000000000000    
!MULTI=  0.000000000000000    
!DFMULTI=  0.000000000000000    
_SEW_ONEEL=  0.000000000000000    
_CPPDONE=FALSE
_DKROLL_DONE=  0.000000000000000    
_FNUC_DONE=  0.000000000000000    
_FOCKDONE=TRUE
_GRADONE=FALSE
_HESSDONE=TRUE
_INTDONE=TRUE
_SCFDONE=TRUE
_MODUL_BLOCK=FALSE
_MODUL_SLATER=FALSE
_MODUL_MRCC=FALSE
_MODUL_NBO6=FALSE
_MODUL_NECI=FALSE
_MODUL_AIMS=TRUE
_MODUL_HDF5=FALSE
_MODUL_GECCO=FALSE
_ISWINDOWS=FALSE
_MRCC_EXEC=
_FITC_AO_SAVED=FALSE
_FITC_MO_SAVED=FALSE
_SHARED_FS=TRUE
_LSTYP=SEWARD
_INTYP=INTS
_GEOMTYP=ZMAT
_GRADTYP=ALASKA
_DIRECT=FALSE
_DKHO= -1.000000000000000    
_FNUC=  0.000000000000000    
_SYNCM=  0.000000000000000    
_BASIS=6-311G(D,P)
_ZCENTRE=MASS
_ZORIENT=  1.000000000000000    
_NELEC=  40.00000000000000    
!SPIN=  0.000000000000000    
_OPTCONV= 0.1168729993953414E-02
_QSDSTEP=  0.000000000000000    
_QSDIRC=  0.000000000000000    
_PROGRAM=FREQ
_CPUSTEP=  429.3600000000000    
_SYSSTEP=  3.000000000000000    
_WALLSTEP=  272.8700000000000    
!DFSCF=  0.000000000000000    
!SCSGRD=  0.000000000000000    
_NCEN=  9.000000000000000    
_CPUTOT=  1395.000000000000    
_DFTEXFAC=  1.000000000000000    
_DMX=-0.3296478908621641E-03
_DMY= 0.1187598812510005    
_DMZ= 0.2546591353628731    
_DMX_SCF=-0.3296478908621641E-03
_DMY_SCF= 0.1187598812510005    
_DMZ_SCF= 0.2546591353628731    
_FREQUENCIES= 0.3481087295759875E-04
_HOMO=  20.10000000000000    
_EHOMO=-0.4741228103375765    
_LUMO=  21.10000000000000    
_ELUMO= 0.1579050797986764    
_ENERGY= -302.7619154167661    
_ENERGY_METHOD=HF
_ENERGY_BASIS=6-311G(D,P)
_GEOMETRY_METHOD=HF
_GEOMETRY_BASIS=6-311G(D,P)
_ENUC=  187.1552103442488    
_GRADENERG= -302.7619153863631    
_GRADEXFAC=  9999.000000000000    
_GRADMETHOD=  1.000000000000000    
_NMRMETHOD=  0.000000000000000    
_NMRMAGNET=  0.000000000000000    
_VIRIAL= 0.2623300230872036E-03
!GRID_FREEZE= -1.000000000000000    
!NEESE_INDEX=  0.000000000000000    
_ITERATIONS=  14.00000000000000    
_LASTNELEC=  40.00000000000000    
_LASTSPIN=  0.000000000000000    
_LASTSYM=  1.000000000000000    
_MPP_PROG=  1.000000000000000    
_MSNSTATES=  0.000000000000000    
_RS2PHASE=  0.000000000000000    
_IPROC_MPP=  0.000000000000000    
_IPROC_MPPX=  0.000000000000000    
_NPROC_MPP=  10.00000000000000    
_NPROC_MPPX=  10.00000000000000    
_NPROC_SMP=  8.000000000000000    
_NUMSTEP=  0.000000000000000    
_OPTCONVMX= 0.9875251401389798E-03
_OPTCONVRMS= 0.3895766646511322E-03
_OPTGRAD= 0.1544828483546160E-03
_OPTGRADMX= 0.8647836473348222E-04
_OPTGRADRMS= 0.7356326112124570E-05
_OPTSTEP=  30.00000000000000    
_ORBITAL=  2100.200000000000    
_PI=  3.141592653589793    
_SEIG_MIN= 0.7517774774322045E-02
_SEWPROP=TRUE
_STATUS=  1.000000000000000    
_SYSTOT=  12.21000000000000    
_VERSION=  2022003.000000000    
_WALLTOT=  691.6100000000000    
_ZPE= 0.7308798014959146E-01
_DATE=21-Aug-25
_LASTORB=0
_OUTPUT=/home/zwa/Overlap_Integral_Project/overlap_integral_gaussian/molpro_files/CAME/came.out
_PGROUP=C1
_TIME=15:48:42
_LIBMOL=/usr/local/molpro/molpro_2022.3.0_sockets/lib/
_VIGRDC=  0.000000000000000    
!VIBCNT=  0.000000000000000    
!RGHFCNT=  0.000000000000000    
!SURFREC=  0.000000000000000    
!XSURFREC=  0.000000000000000    
!XPOLYREC=  0.000000000000000    
!ROTREC=  0.000000000000000    
!POLYREC=  0.000000000000000    
!DIPREC=  0.000000000000000    
!DIP4DREC=  0.000000000000000    
!DIPROT=  0.000000000000000    
!DIP4DROT=  0.000000000000000    
!PTREC=  0.000000000000000    
!PT4DREC=  0.000000000000000    
!VSCFREC=  0.000000000000000    
!VCIREC=  0.000000000000000    
!PVCIREC=  0.000000000000000    
!VMP2REC=  0.000000000000000    
!VMCSCFREC=  0.000000000000000    
!VMRCIREC=  0.000000000000000    
!VIBSTATEREC=  0.000000000000000    
!VIBSTATECNT=  0.000000000000000    
!VIBINFO=  0.000000000000000    
!GAREC=  0.000000000000000    
!SCFORB=  21002.00000000000    
!DEFCORE=  5.000000000000000    
!SCORE=  0.000000000000000    
!NEWMOL=  0.000000000000000    
!NEWSYM=  0.000000000000000    
_SLFILES=slscratch
_NGSSTO=  9.000000000000000    
_SIN=SIN
_COS=COS
_TAN=TAN
_ACOS=ACOS
_ASIN=ASIN
_ATAN=ATAN
_COSH=COSH
_SINH=SINH
_TANH=TANH
_ABS=ABS
_MOD=MOD
_ERF=ERF
_REFC=REFC
_ERFC=ERFC
_HYPOT=HYPOT
_J0=J0
_J1=J1
_JN=JN
_GAMMA=GAMMA
_LGAMMA=LGAMMA
_Y0=Y0
_Y1=Y1
_YN=YN
_EXP=EXP
_LOG=LOG
_LOG10=LOG10
_SQRT=SQRT
_INT=INT
_NINT=NINT
_MAX=MAX
_MIN=MIN
_COSMO=  0.000000000000000    
_COSMOIT=  0.000000000000000    
_COSMOES=  0.000000000000000    
_COSMOEDS=  0.000000000000000    
_COSMOEC=  0.000000000000000    
_COSMOEDCORR=  0.000000000000000    
_FEPSI=  1.000000000000000    
_SL_IsMM=  0.000000000000000    
_SL_NSYM=  1.000000000000000    
_SL_System_BitSw=  0.000000000000000    
_SL_Unique_atoms=  0.000000000000000    
_SL_GRAD=  0.000000000000000    
_SL_MAXUPD_Hess=  5.000000000000000    
_SL_N_PRINT_COD=  5.000000000000000    
_SL_PRINT_CODES=  0.000000000000000    
_SL_BasType=  0.000000000000000    
_SL_Energy_Pred=  0.000000000000000    
_SL_New_Coords=  0.000000000000000    
_SL_Total_Nuclea=  0.000000000000000    
_SL_Highest_Mltp=  0.000000000000000    
_SL_Ref_Geom=  0.000000000000000    
_SL_Symmetry_ope=  1.000000000000000    
_SL_agrad=  0.000000000000000    
_SL_GrdMax=  0.000000000000000    
_SL_GrdNorm=  0.000000000000000    
_SL_GrdRMS=  0.000000000000000    
_SL_Hss_Q=  0.000000000000000    
_SL_Hss_X=  0.000000000000000    
_SL_BMxOld=  0.000000000000000    
_SL_KtB=  0.000000000000000    
_SL_TROld=  0.000000000000000    
_SL_No_of_Intern=  0.000000000000000    
_SL_Hess=  0.000000000000000    
_SL_K=  0.000000000000000    
!LATTICE= -1.000000000000000    
!NEWLATTICE=  0.000000000000000    
!LATGRAD_VAR=FALSE
!SEW_LATTICE=  1.000000000000000    
!AIC_ONEEL=  0.000000000000000    
!LOCAL=  0.000000000000000    
!SAVEDOM= -1.000000000000000    
!RESTDOM= -1.000000000000000    
!SAVEDOM_HF= -1.000000000000000    
!RESTDOM_HF= -1.000000000000000    
!HESSREC=  5300.200000000000    
!FREQREC=  5400.200000000000    
!NMODREC=  5450.200000000000    
!GTASKS=  0.000000000000000    
!HTASKS=  0.000000000000000    
!SAVEDOM_EOM= -1.000000000000000    
!RESTDOM_EOM= -1.000000000000000    
!GRADSTATE= -1.000000000000000    
!DEBUG=  0.000000000000000    
!CFIT_CPHF=  0.000000000000000    
!RDOMAUX_CPHF=  0.000000000000000    
!THRAO_CPHF= 0.1000000000000000E-11
!THRMO_CPHF= 0.1000000000000000E-11
!THROV_CPHF= 0.1000000000000000E-11
!THRSW_CPHF= 0.1000000000000000E-11
!THRPROD_CPHF= 0.1000000000000000E-11
!THRAOPR_CPHF= 0.1000000000000000E-11
!CFIT_SCFGRD=  0.000000000000000    
!RDOMAUX_SCFGRD=  0.000000000000000    
!THRAO_SCFGRD= 0.1000000000000000E-11
!THRMO_SCFGRD= 0.1000000000000000E-11
!THROV_SCFGRD= 0.1000000000000000E-11
!THRSW_SCFGRD= 0.1000000000000000E-11
!THRPROD_SCFGRD= 0.1000000000000000E-11
!THRAOPR_SCFGRD= 0.1000000000000000E-11
!LOCFIT_SCF=  0.000000000000000    
!LOCFIT_MP2=  0.000000000000000    
_RIDOM=  0.000000000000000    
!CC2_METHOD=  0.000000000000000    
_BASIS2006=FALSE
_SVDDEL= -1.000000000000000    
_SVDDELA= -1.000000000000000    
_SVDDELP= -1.000000000000000    
_SVDDELF= -1.000000000000000    
_SVDDELS= -1.000000000000000    
_SVDDEL_ABS= -1.000000000000000    
_SVDDELA_ABS= -1.000000000000000    
_SVDDELP_ABS= -1.000000000000000    
_SVDDELF_ABS= -1.000000000000000    
_SVDDELS_ABS= -1.000000000000000    
_MAXBASIS=  0.000000000000000    
!OPT_CONICAL=  0.000000000000000    
!CLEARSP_JGRID=  0.000000000000000    
_GRDHYBR=  0.000000000000000    
_STATEGRAD=  1.000000000000000    
_4EXT_NDISKS=  1.000000000000000    
!EMBEDFLAG=  1.000000000000000    
!EMBED=FALSE
!EMBED_F12=FALSE
!EMBEDNUC=  0.000000000000000    
_EMBEDENERGY=  0.000000000000000    
!EMBED_DFC=FALSE
!NUM_VOIDS=  0.000000000000000    
_IBODY=  0.000000000000000    
_EMBE_CORR=  0.000000000000000    
!EMBED_PROJ=FALSE
!EMB_PROJ_ZMU=  1000000.000000000    
!CORRECTION_HF=  0.000000000000000    
!EMBED_AORB=  0.000000000000000    
!EMBED_NACORR=  0.000000000000000    
!EMBED_MP2=FALSE
!EMBED_TRUNC_PERTURBATION=FALSE
!EMBED_FROZEN=  0.000000000000000    
!EMBED_ACTIVE=  0.000000000000000    
_CHANGE_BASIS=FALSE
_RESTORE_BASIS=FALSE
_FIX_EMBED_GUESS=FALSE
_EMBED_SCF=FALSE
_HUZINAGA_T=FALSE
_HUZINAGA_F=FALSE
_HUZINAGA=FALSE
_HUZINAGA_CORRECT=FALSE
!FASTLATGRAD=  1.000000000000000    
!FASTVLAMBDA= -1.000000000000000    
!IFORCE= -1.000000000000000    
!USESYM= -1.000000000000000    
_SINDEX=  0.000000000000000    
_AVDOM_OSV=  0.000000000000000    
_AVDOM_PNO=  0.000000000000000    
_AVDOM_PAO=  0.000000000000000    
_AVDOM_LMO=  0.000000000000000    
_CC2OSV_FLAG=  0.000000000000000    
_EOMCCSD_CONV=FALSE
_TMADC2_FLAG=FALSE
_PROPADC2_FLAG=FALSE
_LEN_VirQ=  0.000000000000000    
_GRDCC2LR_FLAG=FALSE
_GRDADC2_FLAG=FALSE
_RO_VGLOBAL=  0.000000000000000    
_OPT=FALSE
_FREQ=FALSE
_HESS=FALSE
_CMRCC_callName=EMPTY
_CMRCC_callCount=  0.000000000000000    
_GECCO_CIROOT=  1.000000000000000    
_SYM_CATION=  1.000000000000000    
_MON_A=FALSE
_MON_B=FALSE
GX1=-0.3727066973924341E-04
GY1=-0.8714981648806726E-01
GZ1=-0.4399213642350508    
GX2= 0.2371832023250671E-04
GY2= -1.270026365473300    
GZ2=-0.4466177906991915    
GX3= 0.2570439462153036E-04
GY3= 0.6757704445391123    
GZ3= 0.6194228449920749    
GX4= 0.1775481964719349E-04
GY4= 0.6645510445739361    
GZ4= -1.521601404094219    
GX5=-0.3191004964984857E-03
GY5= 0.9091969230559438E-01
GZ5= -2.271270700452184    
GX6=-0.1538214283163714E-04
GY6= 0.1847732998800054E-01
GZ6=  1.876298213132651    
GX7= 0.8826451274599908    
GY7=-0.5971491034930821    
GZ7=  1.980403555003972    
GX8= 0.1339228147868998E-03
GY8= 0.8051318131169695    
GZ8=  2.614051741910132    
GX9=-0.8828991776874089    
GY9=-0.5968651812372486    
GZ9=  1.980493161710070    
CX1=-0.7043135828854741E-04
CY1=-0.1646892849738423    
CZ1=-0.8313308947759845    
OX2= 0.4482112937560789E-04
OY2= -2.400002001798411    
OZ2=-0.8439853068069065    
OX3= 0.4857426603399606E-04
OY3=  1.277021063295531    
OZ3=  1.170539532371543    
OX4= 0.3355174652532044E-04
OY4=  1.255819470078712    
OZ4= -2.875409924584099    
HX5=-0.6030125446142425E-03
HY5= 0.1718133177928184    
HZ5= -4.292079578741564    
CX6=-0.2906803716166972E-04
CY6= 0.3491709319165587E-01
CZ6=  3.545689750945422    
HX7=  1.667957556134787    
HY7= -1.128448261167735    
HZ7=  3.742420335192755    
HX8= 0.2530774417862230E-03
HY8=  1.521478621014451    
HZ8=  4.939841867811078    
HX9= -1.668437641486507    
HY9= -1.127911725863524    
HZ9=  3.742589667326210    
[Atoms] Angs
C     1    6        -0.0000372707       -0.0871498165       -0.4399213642
O     2    8         0.0000237183       -1.2700263655       -0.4466177907
O     3    8         0.0000257044        0.6757704445        0.6194228450
O     4    8         0.0000177548        0.6645510446       -1.5216014041
H     5    1        -0.0003191005        0.0909196923       -2.2712707005
C     6    6        -0.0000153821        0.0184773300        1.8762982131
H     7    1         0.8826451275       -0.5971491035        1.9804035550
H     8    1         0.0001339228        0.8051318131        2.6140517419
H     9    1        -0.8828991777       -0.5968651812        1.9804931617
[GTO]
   1 0
 s    6  1.00
  0.4563240000D+04  0.1966650249D-02
  0.6820240000D+03  0.1523060193D-01
  0.1549730000D+03  0.7612690966D-01
  0.4445530000D+02  0.2608010331D+00
  0.1302900000D+02  0.6164620782D+00
  0.1827730000D+01  0.2210060280D+00
 s    3  1.00
  0.2096420000D+02  0.1146600807D+00
  0.4803310000D+01  0.9199996477D+00
  0.1459330000D+01 -0.3030682134D-02
 s    1  1.00
  0.4834560000D+00  0.1000000000D+01
 s    1  1.00
  0.1455850000D+00  0.1000000000D+01
 p    3  1.00
  0.2096420000D+02  0.4024869267D-01
  0.4803310000D+01  0.2375939567D+00
  0.1459330000D+01  0.8158538515D+00
 p    1  1.00
  0.4834560000D+00  0.1000000000D+01
 p    1  1.00
  0.1455850000D+00  0.1000000000D+01
 d    1  1.00
  0.6260000000D+00  0.1000000000D+01
  
   2 0
 s    6  1.00
  0.8588500000D+04  0.1895150083D-02
  0.1297230000D+04  0.1438590063D-01
  0.2992960000D+03  0.7073200310D-01
  0.8737710000D+02  0.2400010105D+00
  0.2567890000D+02  0.5947970261D+00
  0.3740040000D+01  0.2808020123D+00
 s    3  1.00
  0.4211750000D+02  0.1138890124D+00
  0.9628370000D+01  0.9208111006D+00
  0.2853320000D+01 -0.3274470358D-02
 s    1  1.00
  0.9056610000D+00  0.1000000000D+01
 s    1  1.00
  0.2556110000D+00  0.1000000000D+01
 p    3  1.00
  0.4211750000D+02  0.3651139738D-01
  0.9628370000D+01  0.2371529830D+00
  0.2853320000D+01  0.8197019412D+00
 p    1  1.00
  0.9056610000D+00  0.1000000000D+01
 p    1  1.00
  0.2556110000D+00  0.1000000000D+01
 d    1  1.00
  0.1292000000D+01  0.1000000000D+01
  
   3 0
 s    6  1.00
  0.8588500000D+04  0.1895150083D-02
  0.1297230000D+04  0.1438590063D-01
  0.2992960000D+03  0.7073200310D-01
  0.8737710000D+02  0.2400010105D+00
  0.2567890000D+02  0.5947970261D+00
  0.3740040000D+01  0.2808020123D+00
 s    3  1.00
  0.4211750000D+02  0.1138890124D+00
  0.9628370000D+01  0.9208111006D+00
  0.2853320000D+01 -0.3274470358D-02
 s    1  1.00
  0.9056610000D+00  0.1000000000D+01
 s    1  1.00
  0.2556110000D+00  0.1000000000D+01
 p    3  1.00
  0.4211750000D+02  0.3651139738D-01
  0.9628370000D+01  0.2371529830D+00
  0.2853320000D+01  0.8197019412D+00
 p    1  1.00
  0.9056610000D+00  0.1000000000D+01
 p    1  1.00
  0.2556110000D+00  0.1000000000D+01
 d    1  1.00
  0.1292000000D+01  0.1000000000D+01
  
   4 0
 s    6  1.00
  0.8588500000D+04  0.1895150083D-02
  0.1297230000D+04  0.1438590063D-01
  0.2992960000D+03  0.7073200310D-01
  0.8737710000D+02  0.2400010105D+00
  0.2567890000D+02  0.5947970261D+00
  0.3740040000D+01  0.2808020123D+00
 s    3  1.00
  0.4211750000D+02  0.1138890124D+00
  0.9628370000D+01  0.9208111006D+00
  0.2853320000D+01 -0.3274470358D-02
 s    1  1.00
  0.9056610000D+00  0.1000000000D+01
 s    1  1.00
  0.2556110000D+00  0.1000000000D+01
 p    3  1.00
  0.4211750000D+02  0.3651139738D-01
  0.9628370000D+01  0.2371529830D+00
  0.2853320000D+01  0.8197019412D+00
 p    1  1.00
  0.9056610000D+00  0.1000000000D+01
 p    1  1.00
  0.2556110000D+00  0.1000000000D+01
 d    1  1.00
  0.1292000000D+01  0.1000000000D+01
  
   5 0
 s    3  1.00
  0.3386500000D+02  0.2549381454D-01
  0.5094790000D+01  0.1903731086D+00
  0.1158790000D+01  0.8521614860D+00
 s    1  1.00
  0.3258400000D+00  0.1000000000D+01
 s    1  1.00
  0.1027410000D+00  0.1000000000D+01
 p    1  1.00
  0.7500000000D+00  0.1000000000D+01
  
   6 0
 s    6  1.00
  0.4563240000D+04  0.1966650249D-02
  0.6820240000D+03  0.1523060193D-01
  0.1549730000D+03  0.7612690966D-01
  0.4445530000D+02  0.2608010331D+00
  0.1302900000D+02  0.6164620782D+00
  0.1827730000D+01  0.2210060280D+00
 s    3  1.00
  0.2096420000D+02  0.1146600807D+00
  0.4803310000D+01  0.9199996477D+00
  0.1459330000D+01 -0.3030682134D-02
 s    1  1.00
  0.4834560000D+00  0.1000000000D+01
 s    1  1.00
  0.1455850000D+00  0.1000000000D+01
 p    3  1.00
  0.2096420000D+02  0.4024869267D-01
  0.4803310000D+01  0.2375939567D+00
  0.1459330000D+01  0.8158538515D+00
 p    1  1.00
  0.4834560000D+00  0.1000000000D+01
 p    1  1.00
  0.1455850000D+00  0.1000000000D+01
 d    1  1.00
  0.6260000000D+00  0.1000000000D+01
  
   7 0
 s    3  1.00
  0.3386500000D+02  0.2549381454D-01
  0.5094790000D+01  0.1903731086D+00
  0.1158790000D+01  0.8521614860D+00
 s    1  1.00
  0.3258400000D+00  0.1000000000D+01
 s    1  1.00
  0.1027410000D+00  0.1000000000D+01
 p    1  1.00
  0.7500000000D+00  0.1000000000D+01
  
   8 0
 s    3  1.00
  0.3386500000D+02  0.2549381454D-01
  0.5094790000D+01  0.1903731086D+00
  0.1158790000D+01  0.8521614860D+00
 s    1  1.00
  0.3258400000D+00  0.1000000000D+01
 s    1  1.00
  0.1027410000D+00  0.1000000000D+01
 p    1  1.00
  0.7500000000D+00  0.1000000000D+01
  
   9 0
 s    3  1.00
  0.3386500000D+02  0.2549381454D-01
  0.5094790000D+01  0.1903731086D+00
  0.1158790000D+01  0.8521614860D+00
 s    1  1.00
  0.3258400000D+00  0.1000000000D+01
 s    1  1.00
  0.1027410000D+00  0.1000000000D+01
 p    1  1.00
  0.7500000000D+00  0.1000000000D+01


[MO]
 Sym=      1.1
 Ene=     -20.6109
 Spin= Alpha
 Occup=    2.000000
1 -0.000003456505980
2 -0.000041249977711
3 0.000192514310269
4 0.000423697386417
5 0.000000005760440
6 0.000028071818714
7 -0.000039984059276
8 -0.000000014270750
9 0.000215329972271
10 -0.000250851963186
11 0.000000059338700
12 0.000611788106902
13 -0.000504795535294
14 -0.000032180908816
15 -0.000099765461952
16 0.000131946370768
17 -0.000000008931683
18 -0.000000006393245
19 -0.000122510162293
20 -0.000139620991771
21 -0.000118410648543
22 -0.000019567039450
23 0.000360298926837
24 0.000000000429155
25 -0.000016525303447
26 0.000012167882186
27 -0.000000001311592
28 0.000062875552322
29 -0.000018390623857
30 -0.000000033788153
31 0.000046567803168
32 0.000150098243431
33 -0.000006326805652
34 0.000022926343222
35 -0.000016599537570
36 -0.000000007486586
37 -0.000000000787423
38 0.000009901090534
39 -0.003319087258331
40 -0.002840415372831
41 -0.000016950302775
42 -0.000135563409667
43 -0.000000000443927
44 0.000004902473377
45 0.000011965124366
46 0.000000007399014
47 0.000012780039186
48 -0.000021084614637
49 -0.000000009547928
50 -0.000071460917971
51 0.000084690860909
52 -0.000008449827740
53 -0.000002524917451
54 0.000010974745192
55 0.000000000112700
56 -0.000000001635546
57 0.000003445437303
58 0.55141178270993
59 0.47164022602598
60 0.005801245989931
61 -0.001336724543440
62 -0.000000568668754
63 -0.001741582605765
64 0.000121563828637
65 0.000000205998977
66 0.000624754249503
67 0.000006186500548
68 -0.000000029199478
69 0.000050858063295
70 -0.000322319100150
71 0.000085157859902
72 0.000016286795968
73 -0.000101444655870
74 -0.000000047814521
75 -0.000000029572899
76 0.000027334424995
77 0.000212803768235
78 0.000123225835647
79 0.000016385251432
80 0.000000025260327
81 0.000007465138320
82 0.000105135475927
83 -0.000001015530586
84 0.000003689879027
85 -0.000045407150028
86 0.000092383771696
87 -0.000000000384080
88 -0.000000565204599
89 0.000003541497890
90 0.000000001917281
91 -0.000000032194517
92 -0.000004495222577
93 -0.000000013469793
94 -0.000092869216331
95 -0.000116026432815
96 -0.000007284021362
97 -0.000006364743007
98 0.000013648764369
99 -0.000000000120300
100 0.000000000435492
101 0.000000396757737
102 0.000000148045436
103 -0.000017158262189
104 -0.000002695151494
105 0.000001712230141
106 0.000006378449745
107 -0.000002139804965
108 -0.000008274048387
109 0.000048444440939
110 0.000038702057455
111 -0.000000001101674
112 -0.000004903269731
113 -0.000002072765739
114 0.000000148697404
115 -0.000017162904660
116 -0.000002675764711
117 -0.000001706942818
118 0.000006379138202
119 -0.000002138786279
 Sym=      2.1
 Ene=     -20.6089
 Spin= Alpha
 Occup=    2.000000
1 -0.000003584168483
2 -0.000041001011034
3 0.000193665003726
4 0.000369727239942
5 0.000000003472075
6 0.000035998399127
7 0.000035092419551
8 0.000000001298908
9 0.000177627252488
10 0.000258695891701
11 0.000000030385345
12 0.000467368500631
13 0.000269604919536
14 -0.000025707317307
15 -0.000111856849204
16 0.000137564166511
17 0.000000003259967
18 0.000000009189800
19 0.000100485962991
20 -0.000138489302462
21 -0.000120303630442
22 0.000007058702875
23 0.000240125928800
24 0.000000000379572
25 -0.000015822232704
26 -0.000012747616200
27 -0.000000001937753
28 0.000061658919943
29 0.000023040314777
30 -0.000000020515831
31 0.000015497781374
32 -0.000137235600745
33 -0.000005224792110
34 0.000020967352587
35 -0.000015742560477
36 -0.000000004776693
37 0.000000000317943
38 -0.000011736158017
39 0.55141769977317
40 0.47163368257478
41 0.005836609073628
42 -0.001393074346150
43 -0.000000133523015
44 -0.001708988553661
45 -0.000050060636726
46 0.000000047821533
47 0.000629294921302
48 -0.000016978460299
49 0.000000008171010
50 0.000064602181988
51 0.000066259416098
52 0.000093633874828
53 0.000021568346486
54 -0.000115202221314
55 -0.000000015865977
56 -0.000000003273391
57 0.000004162818931
58 0.003322372855509
59 0.002840347718683
60 0.000054031195451
61 -0.000185071171022
62 -0.000000004120473
63 -0.000017861031616
64 -0.000011421424296
65 0.000000007272182
66 0.000030285837954
67 0.000025686263597
68 0.000000009446549
69 -0.000043778010684
70 -0.000068463830742
71 -0.000002342622643
72 -0.000007960225999
73 0.000010302848642
74 -0.000000005548163
75 -0.000000003071645
76 -0.000006548623701
77 -0.000004967248486
78 0.000062324274842
79 0.000012874802522
80 0.000000005107773
81 -0.000002472149176
82 0.000033043810865
83 -0.000001999730656
84 -0.000028575361825
85 0.000077451708491
86 0.000495767449062
87 0.000000002814969
88 0.000032423282306
89 -0.000016802069599
90 -0.000000004375446
91 0.000022267587748
92 -0.000242010771014
93 -0.000000008139913
94 0.000074631265676
95 -0.000159271584099
96 -0.000024925485925
97 -0.000075134279300
98 0.000100059765224
99 -0.000000007425723
100 -0.000000009119039
101 -0.000071586795003
102 0.000012988805622
103 -0.000122252449101
104 -0.000008653870198
105 0.000003842732762
106 -0.000020843106288
107 0.000028799536505
108 0.000025010761444
109 -0.000045025390647
110 -0.000015273079171
111 -0.000000003744482
112 -0.000021349576830
113 -0.000024441287726
114 0.000012988070635
115 -0.000122256668722
116 -0.000008675283898
117 -0.000003851846574
118 -0.000020841356501
119 0.000028799739770
 Sym=      3.1
 Ene=     -20.5380
 Spin= Alpha
 Occup=    2.000000
1 0.000005711395958
2 -0.000076652746003
3 0.000344870816186
4 0.000513313414898
5 0.000000004008527
6 -0.000093079362272
7 -0.000001031588530
8 0.000000010848925
9 -0.000414635860907
10 0.000001250778163
11 0.000000034083442
12 -0.000772004813729
13 -0.000027027429351
14 -0.000055489132494
15 0.000170360550537
16 -0.000114871418044
17 -0.000000017055813
18 0.000000001876634
19 0.000004051273715
20 0.55143364915060
21 0.47167036801643
22 0.005658385894282
23 -0.001336034638119
24 -0.000000162401152
25 0.001811893461742
26 0.000003870235538
27 0.000000060306928
28 -0.000604284941658
29 0.000004519413900
30 0.000000002467126
31 -0.000178607060324
32 -0.000017981446582
33 -0.000108745501396
34 0.000013841712717
35 0.000094903788678
36 0.000000011996881
37 -0.000000002962182
38 -0.000003835687228
39 0.000140953980971
40 0.000120806237114
41 0.000005404270600
42 0.000055373743745
43 -0.000000001995915
44 0.000014477634203
45 -0.000001911839621
46 0.000000006753586
47 -0.000030045566143
48 0.000022944764123
49 -0.000000023365496
50 0.000154216183257
51 -0.000207970268717
52 0.000003351933027
53 -0.000005022995428
54 0.000001671062401
55 0.000000000795412
56 0.000000001554190
57 0.000012555840597
58 0.000143934017170
59 0.000125786670356
60 -0.000018326019871
61 0.000123542491017
62 -0.000000001966686
63 0.000015557928810
64 -0.000003434423589
65 0.000000005341553
66 -0.000030093697947
67 0.000000948646819
68 -0.000000016005488
69 0.000135259010023
70 0.000127869599339
71 0.000002000698032
72 -0.000004449718242
73 0.000002449020210
74 0.000000001404194
75 -0.000000003446752
76 -0.000010555004622
77 0.000002585538455
78 0.000044321185590
79 -0.000011568929187
80 0.000000017921986
81 0.000024888718753
82 -0.000006734539632
83 0.000001423680938
84 -0.000003677759754
85 0.000018242648679
86 0.000248455313901
87 -0.000000000825598
88 -0.000005329502291
89 0.000002530685651
90 -0.000000004707968
91 0.000013781386612
92 -0.000022126816269
93 -0.000000011827658
94 -0.000042412006390
95 -0.000068380391183
96 0.000013072701104
97 0.000001050919987
98 -0.000014123621092
99 0.000000002583840
100 -0.000000007717393
101 -0.000021359906750
102 0.000014910503900
103 -0.000108609221711
104 -0.000016993422182
105 0.000020046131946
106 -0.000003717972603
107 0.000017135034425
108 0.000003629159613
109 -0.000004039222556
110 0.000008734435449
111 -0.000000000723061
112 -0.000004471156121
113 -0.000003443967791
114 0.000014913653162
115 -0.000108612222304
116 -0.000017014934518
117 -0.000020058858294
118 -0.000003713721448
119 0.000017139767067
 Sym=      4.1
 Ene=     -11.4293
 Spin= Alpha
 Occup=    2.000000
1 0.56350255684669
2 0.46660391506758
3 0.003694354300324
4 0.000765079923580
5 -0.000000079216707
6 0.000952936844293
7 -0.000058188433185
8 0.000000088817006
9 -0.001081591559237
10 0.000070629727107
11 -0.000000000176156
12 -0.000138062685396
13 -0.000012168963062
14 -0.000475166874196
15 0.000617484120919
16 -0.000142317246724
17 -0.000000034901967
18 0.000000014875556
19 0.000039233352797
20 -0.000221442005197
21 -0.000319473725226
22 0.000590530176190
23 -0.000977775692228
24 -0.000000010921793
25 0.000331391444388
26 0.000000179659825
27 -0.000000015713628
28 0.000424551660405
29 0.000008960069587
30 0.000000036815787
31 -0.000537225797137
32 -0.000008055506941
33 -0.000064446387355
34 0.000216284955804
35 -0.000151838568449
36 -0.000000014519473
37 -0.000000001128572
38 0.000005112316074
39 -0.000112190605420
40 -0.000193927335456
41 0.000501800582890
42 -0.000109431231450
43 -0.000000008479505
44 -0.000111264418940
45 -0.000143883225900
46 -0.000000024696676
47 -0.000358946840648
48 -0.000445877009912
49 0.000000004536513
50 0.000120624359787
51 0.000158923656083
52 -0.000055209647895
53 0.000013638844362
54 0.000041570803533
55 0.000000011848396
56 0.000000011183236
57 0.000195147503822
58 -0.000105280481528
59 -0.000185299824870
60 0.000486708298244
61 -0.000141804462498
62 -0.000000008935812
63 -0.000098638080256
64 0.000139527619904
65 -0.000000011104395
66 -0.000332218778253
67 0.000475793234256
68 0.000000009351151
69 0.000102154902938
70 -0.000055446708860
71 -0.000060761624066
72 0.000002023033225
73 0.000058738590841
74 0.000000001257344
75 -0.000000027767663
76 -0.000209475724905
77 0.000019083244808
78 0.000046006563748
79 -0.000047086006700
80 0.000000019949207
81 0.000031119801841
82 0.000039066449996
83 -0.000038145573155
84 -0.000031075943186
85 -0.000011642781176
86 -0.000118952983052
87 0.000000001386882
88 -0.000004660548488
89 0.000017490459897
90 -0.000000012744236
91 0.000015648050961
92 -0.000036233935577
93 -0.000000000500703
94 -0.000082183737322
95 0.000019245498509
96 -0.000007716056642
97 -0.000016021431858
98 0.000023737488500
99 0.000000005494543
100 -0.000000002102927
101 -0.000018840398285
102 -0.000003480967029
103 0.000016690008892
104 -0.000014890049453
105 -0.000006600541379
106 0.000011566994629
107 0.000001807465411
108 0.000005309461447
109 0.000063853691333
110 0.000015749970644
111 -0.000000003583473
112 -0.000012999540241
113 -0.000006854717597
114 -0.000003479825471
115 0.000016669988120
116 -0.000014871633621
117 0.000006592892789
118 0.000011560248994
119 0.000001812961833
 Sym=      5.1
 Ene=     -11.2918
 Spin= Alpha
 Occup=    2.000000
1 0.000042759912986
2 0.000042077527015
3 -0.000075243718057
4 -0.000147998033531
5 -0.000000000783996
6 -0.000008144191809
7 -0.000008501810465
8 -0.000000001044321
9 0.000011012159746
10 -0.000025916882884
11 -0.000000006199731
12 -0.000116734125232
13 0.000074010266725
14 -0.000011821400351
15 0.000009926474760
16 0.000001894925591
17 0.000000002300121
18 0.000000001744925
19 0.000026726685103
20 0.000000896740593
21 0.000002192483911
22 -0.000011506492541
23 -0.000010978523861
24 -0.000000000626933
25 0.000000395462743
26 0.000000449268596
27 0.000000002887428
28 -0.000008426502535
29 -0.000010393947302
30 -0.000000003452181
31 0.000034784209669
32 0.000015239298949
33 -0.000003429080851
34 0.000003997895123
35 -0.000000568814272
36 0.000000000590406
37 -0.000000001410327
38 0.000006636571520
39 -0.000069177702270
40 -0.000125324568848
41 0.000262786799362
42 0.000619825741053
43 -0.000000002586343
44 -0.000048800673966
45 0.000074096237387
46 -0.000000013713383
47 -0.000273015236486
48 0.000522348923597
49 -0.000000017951511
50 -0.000155649662652
51 0.000148131024015
52 -0.000122291578750
53 -0.000025197986106
54 0.000147489564856
55 0.000000008710560
56 -0.000000012176045
57 -0.000190469161580
58 -0.000000718839952
59 0.000000757102746
60 -0.000023913507449
61 0.000164806459327
62 0.000000000591476
63 0.000001974372276
64 0.000003788630477
65 -0.000000004110474
66 -0.000008846114400
67 -0.000002769657445
68 -0.000000000924179
69 -0.000017827577456
70 0.000065509338758
71 -0.000002776086323
72 -0.000001464525431
73 0.000004240611754
74 0.000000001313417
75 0.000000000618471
76 -0.000002155892422
77 -0.000000222978126
78 -0.000017251621520
79 0.000031125774748
80 -0.000000002267877
81 -0.000002805073404
82 -0.000008512680841
83 0.56342496272528