
 Working directory              : /tmp/zwa/molpro.RSlnr5osoG/
 Global scratch directory       : /tmp/zwa/molpro.RSlnr5osoG/
 Wavefunction directory         : /home/zwa/wfu/
 Main file repository           : /tmp/zwa/molpro.RSlnr5osoG/

 id        : liedlgroup

 Nodes     nprocs
 rh2-c724    10
 GA implementation: MPI file
 GA implementation (serial work in mppx): MPI file

 Using customized tuning parameters: mindgm=1; mindgv=20; mindgc=4; mindgr=1; noblas=0; minvec=7
 default implementation of scratch files=sf  


 Variables initialized (1025), CPU time= 0.02 sec
 memory, 1000, m                                                                  ! Memory Requirements
  orient,mass
  geometry = {
 C  ,               -2.73454681  ,  0.27740193 ,  -0.86786766
  O  ,               -4.16454681 ,   0.27741955 ,  -0.86786766
  O  ,               -2.08450472 ,   1.06960417 ,  -2.24001700
  O ,                -2.02861328 ,  -1.73988416 ,  -0.57661140
  H ,                -2.31978234 ,  -1.03822173 ,   1.15326252
  C ,                -2.41622609 ,   1.95381089 ,  -3.50820336
  H ,                -2.05955325 ,   2.45820908 ,  -2.63455185
  H ,                -2.05955325 ,   2.45820908,   -4.38185486
  H ,                -3.07982044 ,   2.15580029 ,  -3.79789920
  }
 
  mass, iso
  basis=6-311g(d,p)
 
  {hf
  start,atden}
 
  optg
  {frequencies, symm=auto, print=0,analytical}
                                                                                 !put,molden,came.molden
 Commands initialized (840), CPU time= 0.02 sec, 684 directives.
 Default parameters read. Elapsed time= 0.18 sec

 Checking input...
 Passed
1


                                         ***  PROGRAM SYSTEM MOLPRO  ***
                                       Copyright, TTI GmbH Stuttgart, 2015
                                    Version 2022.3 linked Wed Nov 30 12:40:34 2022


 **********************************************************************************************************************************
 LABEL *                                                                                 
  (8 PROC) 64 bit mpp version                                                            DATE: 21-Aug-25          TIME: 15:48:11  
 **********************************************************************************************************************************

 SHA1:             e31ec9a5ea85254ab76f59d122cbdd51c71cf98b
 **********************************************************************************************************************************

 Memory per process:      1000 MW
 Total memory per node:  10000 MW

 GA preallocation disabled
 GA check disabled

 Variable memory set to 1000.0 MW

 ZCENTRE=MASS


 Geometry recognized as XYZ



 Using masses of most abundant isotopes

 **********************************************************************************************************************************
 SETTING BASIS          =    6-311G(D,P)


 Recomputing integrals since basis changed


 Using spherical harmonics

 Library entry C      S 6-311G               selected for orbital group  1
 Library entry C      P 6-311G               selected for orbital group  1
 Library entry C      D 6-311G*              selected for orbital group  1
 Library entry O      S 6-311G               selected for orbital group  2
 Library entry O      P 6-311G               selected for orbital group  2
 Library entry O      D 6-311G*              selected for orbital group  2
 Library entry H      S 6-311G               selected for orbital group  3
 Library entry H      P 6-311G**             selected for orbital group  3


 PROGRAM * SEWARD (Integral evaluation for generally contracted gaussian basis sets)     Author: Roland Lindh, 1990

 Geometry written to block  1 of record 700

 Orientation using atomic masses  
 Molecule type: Asymmetric top
 Rotational constants:       1.8840716      2.3159913      7.6216081 GHz

 Point group  C1  



 ATOMIC COORDINATES

 NR  ATOM    CHARGE       X              Y              Z

   1  C       6.00    0.816228987   -0.433380387   -1.028867224
   2  O       8.00   -0.325936471   -2.878341697   -1.170616030
   3  O       8.00    0.448451253    0.927204706    1.884419808
   4  O       8.00   -0.506001288    1.839362696   -4.143532155
   5  H       1.00    2.287163348   -0.001276237   -5.391513537
   6  C       6.00   -0.465743660    0.498364327    4.696637287
   7  H       1.00    1.515555982    0.339253399    4.325628399
   8  H       1.00   -0.745604112    1.266835815    6.545864637
   9  H       1.00   -1.144076538   -0.604626918    5.280773570

 Bond lengths in Bohr (Angstrom)

 1-2  2.702308358  1-3  3.236308636  3-6  2.988013313  6-7  2.022006962  6-8  2.022006947
     ( 1.430000000)     ( 1.712580777)     ( 1.581188551)     ( 1.070000005)     ( 1.069999996)

 6-9  1.420542283
     ( 0.751718603)

 Bond angles

  1-3-6  145.25112279   2-1-3  112.30661763   3-6-7   62.53598848   3-6-8  148.05375832

  3-6-9  130.13189967   7-6-8  109.47125087   7-6-9  118.83276242   8-6-9   81.54311491

 NUCLEAR CHARGE:                   40
 NUMBER OF PRIMITIVE AOS:         192
 NUMBER OF SYMMETRY AOS:          187
 NUMBER OF CONTRACTIONS:          114   (  114A   )
 NUMBER OF INNER CORE ORBITALS:     0   (    0A   )
 NUMBER OF OUTER CORE ORBITALS:     5   (    5A   )
 NUMBER OF VALENCE ORBITALS:       24   (   24A   )


 NUCLEAR REPULSION ENERGY  146.89842739


 Eigenvalues of metric

         1 0.528E-02 0.104E-01 0.173E-01 0.190E-01 0.208E-01 0.317E-01 0.343E-01 0.362E-01


 Contracted 2-electron integrals neglected if value below      1.0D-11
 AO integral compression algorithm  1   Integral accuracy      1.0D-11

     56.885 MB (compressed) written to integral file ( 30.3%)

     Node minimum: 3.408 MB, node maximum: 7.078 MB


 NUMBER OF SORTED TWO-ELECTRON INTEGRALS:    2148400.     BUFFER LENGTH:  32768
 NUMBER OF SEGMENTS:   1  SEGMENT LENGTH:    2148400      RECORD LENGTH: 524288

 Memory used in sort:       2.71 MW

 SORT1 READ    23490972. AND WROTE     1291086. INTEGRALS IN      4 RECORDS. CPU TIME:     0.44 SEC, REAL TIME:     0.47 SEC
 SORT2 READ    12838337. AND WROTE    21487290. INTEGRALS IN    220 RECORDS. CPU TIME:     0.09 SEC, REAL TIME:     0.10 SEC

 Node minimum:     2145780.  Node maximum:     2151680. integrals

 OPERATOR DM      FOR CENTER  0  COORDINATES:    0.000000    0.000000    0.000000


 **********************************************************************************************************************************
 DATASETS  * FILE   NREC   LENGTH (MB)   RECORD NAMES
              1      18       29.18       500      610      700      900      950      970     1000      129      960     1100   
                                          VAR    BASINP    GEOM    SYMINP    ZMAT    AOBASIS   BASIS     P2S    ABASIS      S 
                                         1400     1410     1200     1210     1080     1600     1650     1700   
                                           T        V       H0       H01     AOSYM     SMH    MOLCAS    OPER   

 PROGRAMS   *        TOTAL       INT
 CPU TIMES  *         4.09      3.77
 REAL TIME  *         2.92 SEC
 DISK USED  *        29.59 MB (local),      500.42 MB (total)
 GA USED    *         0.00 MB       (max)       0.00 MB       (current)
 **********************************************************************************************************************************


 Program * Restricted Hartree-Fock

 Orbital guess generated from atomic densities.

 Initial occupancy:  20

 NELEC=   40   SYM=1   MS2= 0   THRE=1.0D-08   THRD=1.0D-06   THRG=1.0D-06  HFMA2=F  DIIS_START=2   DIIS_MAX=10   DIIS_INCORE=F

 Level shifts:    0.00 (CLOSED)    0.00 (OPEN)    0.30 (GAP_MIN)

 ITER           ETOT              DE          GRAD        DDIFF     DIIS  NEXP   TIME(IT)  TIME(TOT)  DIAG
   1     -301.29911752    -301.29911752     0.00D+00     0.49D-01     0     0       0.29      0.82    start
   2     -301.17286320       0.12625432     0.14D-01     0.16D-01     1     0       3.22      4.04    diag
   3     -301.77834446      -0.60548126     0.20D-01     0.89D-02     2     0       3.13      7.17    diag
   4     -301.79004386      -0.01169940     0.19D-02     0.24D-02     3     0       3.33     10.50    diag
   5     -301.80026045      -0.01021659     0.23D-02     0.12D-02     4     0       0.72     11.22    diag
   6     -301.80385651      -0.00359606     0.79D-03     0.86D-03     5     0       0.71     11.93    diag
   7     -301.80568483      -0.00182832     0.41D-03     0.57D-03     6     0       3.36     15.29    diag
   8     -301.80788667      -0.00220184     0.32D-03     0.85D-03     7     0       1.02     16.31    fixocc
   9     -301.80968402      -0.00179735     0.23D-03     0.10D-02     8     0       0.55     16.86    diag
  10     -301.81027458      -0.00059056     0.14D-03     0.57D-03     9     0       0.84     17.70    diag/orth
  11     -301.81051794      -0.00024336     0.97D-04     0.35D-03     9     0       3.16     20.86    diag
  12     -301.81065102      -0.00013308     0.63D-04     0.36D-03     9     0       3.09     23.95    diag
  13     -301.81067615      -0.00002513     0.34D-04     0.11D-03     9     0       3.29     27.24    diag
  14     -301.81068992      -0.00001377     0.24D-04     0.93D-04     9     0       0.81     28.05    diag
  15     -301.81069697      -0.00000705     0.18D-04     0.52D-04     9     0       1.22     29.27    diag
  16     -301.81070237      -0.00000541     0.13D-04     0.50D-04     9     0       3.06     32.33    diag
  17     -301.81070683      -0.00000446     0.11D-04     0.69D-04     9     0       2.96     35.29    diag
  18     -301.81070775      -0.00000092     0.62D-05     0.27D-04     9     0       0.78     36.07    diag
  19     -301.81070803      -0.00000028     0.34D-05     0.17D-04     9     0       0.80     36.87    diag
  20     -301.81070809      -0.00000006     0.20D-05     0.72D-05     9     0       3.28     40.15    diag/orth
  21     -301.81070810      -0.00000001     0.87D-06     0.22D-05     9     0       3.12     43.27    diag
  22     -301.81070811      -0.00000000     0.48D-06     0.16D-05     9     0       3.07     46.34    diag
  23     -301.81070811      -0.00000000     0.29D-06     0.66D-06     9     0       1.81     48.15    diag
  24     -301.81070811      -0.00000000     0.18D-06     0.21D-06     0     0       0.71     48.86    diag

 Final occupancy:  20

 !RHF STATE 1.1 Energy               -301.810708106621
  RHF One-electron energy            -706.113021309754
  RHF Two-electron energy             257.403885810998
  RHF Kinetic energy                  301.361400605102
  RHF Nuclear energy                  146.898427392134
  RHF Virial quotient                  -1.001490925847

 !RHF STATE 1.1 Dipole moment           0.77769221     0.16589594     0.20090974
 Dipole moment /Debye                   1.97669642     0.42166541     0.51066163

 Orbital energies:

           1.1          2.1          3.1          4.1          5.1          6.1          7.1          8.1          9.1         10.1
    -20.690746   -20.606648   -20.590844   -11.498239   -11.273024    -1.327042    -1.286920    -1.248779    -1.037046    -0.803579

          11.1         12.1         13.1         14.1         15.1         16.1         17.1         18.1         19.1         20.1
     -0.686411    -0.604191    -0.582411    -0.556959    -0.550122    -0.539112    -0.484837    -0.471482    -0.442192    -0.372043

          21.1         22.1
     -0.100072    -0.022178


 HOMO     20.1    -0.372043 =     -10.1238eV
 LUMO     21.1    -0.100072 =      -2.7231eV
 LUMO-HOMO         0.271971 =       7.4007eV

 Orbitals saved in record  2100.2


 **********************************************************************************************************************************
 DATASETS  * FILE   NREC   LENGTH (MB)   RECORD NAMES
              1      18       29.18       500      610      700      900      950      970     1000      129      960     1100   
                                          VAR    BASINP    GEOM    SYMINP    ZMAT    AOBASIS   BASIS     P2S    ABASIS      S 
                                         1400     1410     1200     1210     1080     1600     1650     1700   
                                           T        V       H0       H01     AOSYM     SMH    MOLCAS    OPER   

              2       4        0.69       700     1000      520     2100   
                                         GEOM     BASIS   MCVARS     RHF  

 PROGRAMS   *        TOTAL    HF-SCF       INT
 CPU TIMES  *        53.05     48.96      3.77
 REAL TIME  *        18.10 SEC
 DISK USED  *        30.82 MB (local),      512.74 MB (total)
 GA USED    *         0.00 MB       (max)       0.00 MB       (current)
 **********************************************************************************************************************************
