
 Working directory              : /tmp/zwa/molpro.BFL9wOS3hC/
 Global scratch directory       : /tmp/zwa/molpro.BFL9wOS3hC/
 Wavefunction directory         : /home/zwa/wfu/
 Main file repository           : /tmp/zwa/molpro.BFL9wOS3hC/

 id        : liedlgroup

 Nodes     nprocs
 rh2-c724    10
 GA implementation: MPI file
 GA implementation (serial work in mppx): MPI file

 Using customized tuning parameters: mindgm=1; mindgv=20; mindgc=4; mindgr=1; noblas=0; minvec=7
 default implementation of scratch files=sf  


 Variables initialized (1025), CPU time= 0.03 sec
 memory, 1000, m                                                                  ! Memory Requirements
  orient,mass
  geometry = {
 C  ,               -2.73454681  ,  0.27740193 ,  -0.86786766
  O  ,               -4.16454681 ,   0.27741955 ,  -0.86786766
  O  ,               -2.08450472 ,   1.06960417 ,  -2.24001700
  O ,                -2.02861328 ,  -1.73988416 ,  -0.57661140
  H ,                -2.31978234 ,  -1.03822173 ,   1.15326252
  C ,                -2.41622609 ,   1.95381089 ,  -3.50820336
  H ,                -2.05955325 ,   2.45820908 ,  -2.63455185
  H ,                -2.05955325 ,   2.45820908,   -4.38185486
  H ,                -3.07982044 ,   2.15580029 ,  -3.79789920
  }
 
  mass, iso
  basis=6-311g(d,p)
 
  {hf
  start,atden}
 
  optg
  {frequencies, symm=auto, print=0,analytical}
  put,molden,came.molden
 Commands initialized (840), CPU time= 0.02 sec, 684 directives.
 Default parameters read. Elapsed time= 0.18 sec

 Checking input...
 Passed
1


                                         ***  PROGRAM SYSTEM MOLPRO  ***
                                       Copyright, TTI GmbH Stuttgart, 2015
                                    Version 2022.3 linked Wed Nov 30 12:40:34 2022


 **********************************************************************************************************************************
 LABEL *                                                                                 
  (8 PROC) 64 bit mpp version                                                            DATE: 21-Aug-25          TIME: 15:48:42  
 **********************************************************************************************************************************

 SHA1:             e31ec9a5ea85254ab76f59d122cbdd51c71cf98b
 **********************************************************************************************************************************

 Memory per process:      1000 MW
 Total memory per node:  10000 MW

 GA preallocation disabled
 GA check disabled

 Variable memory set to 1000.0 MW

 ZCENTRE=MASS


 Geometry recognized as XYZ



 Using masses of most abundant isotopes

 **********************************************************************************************************************************
 SETTING BASIS          =    6-311G(D,P)


 Recomputing integrals since basis changed


 Using spherical harmonics

 Library entry C      S 6-311G               selected for orbital group  1
 Library entry C      P 6-311G               selected for orbital group  1
 Library entry C      D 6-311G*              selected for orbital group  1
 Library entry O      S 6-311G               selected for orbital group  2
 Library entry O      P 6-311G               selected for orbital group  2
 Library entry O      D 6-311G*              selected for orbital group  2
 Library entry H      S 6-311G               selected for orbital group  3
 Library entry H      P 6-311G**             selected for orbital group  3


 PROGRAM * SEWARD (Integral evaluation for generally contracted gaussian basis sets)     Author: Roland Lindh, 1990

 Geometry written to block  1 of record 700

 Orientation using atomic masses  
 Molecule type: Asymmetric top
 Rotational constants:       1.8840716      2.3159913      7.6216081 GHz

 Point group  C1  



 ATOMIC COORDINATES

 NR  ATOM    CHARGE       X              Y              Z

   1  C       6.00    0.816228987   -0.433380387   -1.028867224
   2  O       8.00   -0.325936471   -2.878341697   -1.170616030
   3  O       8.00    0.448451253    0.927204706    1.884419808
   4  O       8.00   -0.506001288    1.839362696   -4.143532155
   5  H       1.00    2.287163348   -0.001276237   -5.391513537
   6  C       6.00   -0.465743660    0.498364327    4.696637287
   7  H       1.00    1.515555982    0.339253399    4.325628399
   8  H       1.00   -0.745604112    1.266835815    6.545864637
   9  H       1.00   -1.144076538   -0.604626918    5.280773570

 Bond lengths in Bohr (Angstrom)

 1-2  2.702308358  1-3  3.236308636  3-6  2.988013313  6-7  2.022006962  6-8  2.022006947
     ( 1.430000000)     ( 1.712580777)     ( 1.581188551)     ( 1.070000005)     ( 1.069999996)

 6-9  1.420542283
     ( 0.751718603)

 Bond angles

  1-3-6  145.25112279   2-1-3  112.30661763   3-6-7   62.53598848   3-6-8  148.05375832

  3-6-9  130.13189967   7-6-8  109.47125087   7-6-9  118.83276242   8-6-9   81.54311491

 NUCLEAR CHARGE:                   40
 NUMBER OF PRIMITIVE AOS:         192
 NUMBER OF SYMMETRY AOS:          187
 NUMBER OF CONTRACTIONS:          114   (  114A   )
 NUMBER OF INNER CORE ORBITALS:     0   (    0A   )
 NUMBER OF OUTER CORE ORBITALS:     5   (    5A   )
 NUMBER OF VALENCE ORBITALS:       24   (   24A   )


 NUCLEAR REPULSION ENERGY  146.89842739


 Eigenvalues of metric

         1 0.528E-02 0.104E-01 0.173E-01 0.190E-01 0.208E-01 0.317E-01 0.343E-01 0.362E-01


 Contracted 2-electron integrals neglected if value below      1.0D-11
 AO integral compression algorithm  1   Integral accuracy      1.0D-11

     56.885 MB (compressed) written to integral file ( 30.3%)

     Node minimum: 4.719 MB, node maximum: 8.126 MB


 NUMBER OF SORTED TWO-ELECTRON INTEGRALS:    2148400.     BUFFER LENGTH:  32768
 NUMBER OF SEGMENTS:   1  SEGMENT LENGTH:    2148400      RECORD LENGTH: 524288

 Memory used in sort:       2.71 MW

 SORT1 READ    23490972. AND WROTE     1291086. INTEGRALS IN      4 RECORDS. CPU TIME:     0.45 SEC, REAL TIME:     0.48 SEC
 SORT2 READ    12838337. AND WROTE    21487290. INTEGRALS IN    210 RECORDS. CPU TIME:     0.07 SEC, REAL TIME:     0.10 SEC

 Node minimum:     2145780.  Node maximum:     2151680. integrals

 OPERATOR DM      FOR CENTER  0  COORDINATES:    0.000000    0.000000    0.000000


 **********************************************************************************************************************************
 DATASETS  * FILE   NREC   LENGTH (MB)   RECORD NAMES
              1      18       29.18       500      610      700      900      950      970     1000      129      960     1100   
                                          VAR    BASINP    GEOM    SYMINP    ZMAT    AOBASIS   BASIS     P2S    ABASIS      S 
                                         1400     1410     1200     1210     1080     1600     1650     1700   
                                           T        V       H0       H01     AOSYM     SMH    MOLCAS    OPER   

 PROGRAMS   *        TOTAL       INT
 CPU TIMES  *         3.09      2.76
 REAL TIME  *         2.82 SEC
 DISK USED  *        29.59 MB (local),      500.42 MB (total)
 GA USED    *         0.00 MB       (max)       0.00 MB       (current)
 **********************************************************************************************************************************


 Program * Restricted Hartree-Fock

 Orbital guess generated from atomic densities.

 Initial occupancy:  20

 NELEC=   40   SYM=1   MS2= 0   THRE=1.0D-08   THRD=1.0D-06   THRG=1.0D-06  HFMA2=F  DIIS_START=2   DIIS_MAX=10   DIIS_INCORE=F

 Level shifts:    0.00 (CLOSED)    0.00 (OPEN)    0.30 (GAP_MIN)

 ITER           ETOT              DE          GRAD        DDIFF     DIIS  NEXP   TIME(IT)  TIME(TOT)  DIAG
   1     -301.29911752    -301.29911752     0.00D+00     0.49D-01     0     0       0.31      1.24    start
   2     -301.17286320       0.12625432     0.14D-01     0.16D-01     1     0       3.36      4.60    diag
   3     -301.77834446      -0.60548126     0.20D-01     0.89D-02     2     0       0.60      5.20    diag
   4     -301.79004386      -0.01169940     0.19D-02     0.24D-02     3     0       0.76      5.96    diag
   5     -301.80026045      -0.01021659     0.23D-02     0.12D-02     4     0       0.63      6.59    diag
   6     -301.80385651      -0.00359606     0.79D-03     0.86D-03     5     0       0.85      7.44    diag
   7     -301.80568483      -0.00182832     0.41D-03     0.57D-03     6     0       3.48     10.92    diag
   8     -301.80788667      -0.00220184     0.32D-03     0.85D-03     7     0       0.80     11.72    fixocc
   9     -301.80968402      -0.00179735     0.23D-03     0.10D-02     8     0       3.43     15.15    diag
  10     -301.81027458      -0.00059056     0.14D-03     0.57D-03     9     0       0.85     16.00    diag/orth
  11     -301.81051794      -0.00024336     0.97D-04     0.35D-03     9     0       1.17     17.17    diag
  12     -301.81065102      -0.00013308     0.63D-04     0.36D-03     9     0       0.65     17.82    diag
  13     -301.81067615      -0.00002513     0.34D-04     0.11D-03     9     0       0.89     18.71    diag
  14     -301.81068992      -0.00001377     0.24D-04     0.93D-04     9     0       0.60     19.31    diag
  15     -301.81069697      -0.00000705     0.18D-04     0.52D-04     9     0       3.37     22.68    diag
  16     -301.81070237      -0.00000541     0.13D-04     0.50D-04     9     0       1.07     23.75    diag
  17     -301.81070683      -0.00000446     0.11D-04     0.69D-04     9     0       0.83     24.58    diag
  18     -301.81070775      -0.00000092     0.62D-05     0.27D-04     9     0       3.18     27.76    diag
  19     -301.81070803      -0.00000028     0.34D-05     0.17D-04     9     0       3.22     30.98    diag
  20     -301.81070809      -0.00000006     0.20D-05     0.72D-05     9     0       3.34     34.32    diag/orth
  21     -301.81070810      -0.00000001     0.87D-06     0.22D-05     9     0       0.91     35.23    diag
  22     -301.81070811      -0.00000000     0.48D-06     0.16D-05     9     0       0.84     36.07    diag
  23     -301.81070811      -0.00000000     0.29D-06     0.66D-06     9     0       2.88     38.95    diag
  24     -301.81070811      -0.00000000     0.18D-06     0.21D-06     0     0       0.78     39.73    diag

 Final occupancy:  20

 !RHF STATE 1.1 Energy               -301.810708106622
  RHF One-electron energy            -706.113021309754
  RHF Two-electron energy             257.403885810999
  RHF Kinetic energy                  301.361400605102
  RHF Nuclear energy                  146.898427392134
  RHF Virial quotient                  -1.001490925847

 !RHF STATE 1.1 Dipole moment           0.77769221     0.16589594     0.20090974
 Dipole moment /Debye                   1.97669642     0.42166541     0.51066163

 Orbital energies:

           1.1          2.1          3.1          4.1          5.1          6.1          7.1          8.1          9.1         10.1
    -20.690746   -20.606648   -20.590844   -11.498239   -11.273024    -1.327042    -1.286920    -1.248779    -1.037046    -0.803579

          11.1         12.1         13.1         14.1         15.1         16.1         17.1         18.1         19.1         20.1
     -0.686411    -0.604191    -0.582411    -0.556959    -0.550122    -0.539112    -0.484837    -0.471482    -0.442192    -0.372043

          21.1         22.1
     -0.100072    -0.022178


 HOMO     20.1    -0.372043 =     -10.1238eV
 LUMO     21.1    -0.100072 =      -2.7231eV
 LUMO-HOMO         0.271971 =       7.4007eV

 Orbitals saved in record  2100.2


 **********************************************************************************************************************************
 DATASETS  * FILE   NREC   LENGTH (MB)   RECORD NAMES
              1      18       29.18       500      610      700      900      950      970     1000      129      960     1100   
                                          VAR    BASINP    GEOM    SYMINP    ZMAT    AOBASIS   BASIS     P2S    ABASIS      S 
                                         1400     1410     1200     1210     1080     1600     1650     1700   
                                           T        V       H0       H01     AOSYM     SMH    MOLCAS    OPER   

              2       4        0.69       700     1000      520     2100   
                                         GEOM     BASIS   MCVARS     RHF  

 PROGRAMS   *        TOTAL    HF-SCF       INT
 CPU TIMES  *        42.93     39.84      2.76
 REAL TIME  *        16.26 SEC
 DISK USED  *        30.82 MB (local),      512.74 MB (total)
 GA USED    *         0.00 MB       (max)       0.00 MB       (current)
 **********************************************************************************************************************************


 PROGRAM * OPT (Geometry optimization)     Authors: F. Eckert and H.-J. Werner


 BFGS update of hessian

 *** Long output written to logfile /home/zwa/Overlap_Integral_Project/overlap_integral_gaussian/molpro_files/CAME/came.log ***


 Geometry optimization using default procedure for command HF-SCF

 Geometry written to block  1 of record 700

 Entering BMAT geometry-optimization, modelhes=F

 Too few internal coordinates
 BMAT failed, using natural internal coordinates

 Making model hessian for cartesian coordinates

 Entering Rational Function Geometry Optimization

 ITER.   ENERGY(OLD)    ENERGY(NEW)      DE          GRADMAX     GRADNORM    GRADRMS     STEPMAX     STEPLEN     STEPRMS   CPU-time
   1  -301.81070811  -302.00714778    -0.19643967  0.80717913  1.00727153  0.04796531  0.13144316  0.30000000  0.10000000     53.15
   2  -302.00714778  -302.13845708    -0.13130930  0.26829795  0.56620534  0.02696216  0.17566617  0.30000000  0.10000000     89.00
   3  -302.13845708  -302.24964389    -0.11118682  0.22042734  0.45375785  0.02160752  0.18792420  0.30000000  0.10000000    127.12
   4  -302.24964389  -302.34460267    -0.09495878  0.17097728  0.35873681  0.01708271  0.16665122  0.30000000  0.10000000    162.26
   5  -302.34460267  -302.42888960    -0.08428693  0.22255644  0.31021228  0.01477201  0.21972258  0.30000000  0.10000000    183.81
   6  -302.42888960  -302.49897244    -0.07008284  0.17499843  0.27772564  0.01322503  0.18238715  0.30000000  0.10000000    220.16
   7  -302.49897244  -302.55053741    -0.05156497  0.10683626  0.22368502  0.01065167  0.12905522  0.30000000  0.10000000    251.41
   8  -302.55053741  -302.59247847    -0.04194106  0.08121305  0.17303458  0.00823974  0.14660532  0.30000000  0.10000000    279.86
   9  -302.59247847  -302.63049708    -0.03801861  0.07185945  0.14861113  0.00707672  0.20055213  0.30000000  0.10000000    310.36
  10  -302.63049708  -302.66425436    -0.03375728  0.05413128  0.13261796  0.00631514  0.15467620  0.30000000  0.10000000    336.76
  11  -302.66425436  -302.69247426    -0.02821990  0.05130582  0.11280723  0.00537177  0.15053522  0.30000000  0.10000000    370.99
  12  -302.69247426  -302.71543820    -0.02296394  0.05521182  0.09044119  0.00430672  0.21528468  0.30000000  0.10000000    399.46
  13  -302.71543820  -302.73402866    -0.01859046  0.04583471  0.07549691  0.00359509  0.21770405  0.30000000  0.10000000    427.05
  14  -302.73402866  -302.74763762    -0.01360896  0.03577789  0.06188651  0.00294698  0.21150778  0.30000000  0.10000000    461.88
  15  -302.74763762  -302.75544578    -0.00780815  0.02312295  0.04224699  0.00201176  0.18409705  0.30000000  0.10000000    486.32
  16  -302.75544578  -302.75913438    -0.00368860  0.01312091  0.02551163  0.00121484  0.24209261  0.30000000  0.10000000    509.45
  17  -302.75913438  -302.76076837    -0.00163399  0.01041280  0.01797860  0.00085612  0.26156075  0.30000000  0.10000000    536.70
  18  -302.76076837  -302.76125982    -0.00049145  0.00972914  0.01197532  0.00057025  0.13361384  0.18330220  0.06110073    566.65
  19  -302.76125982  -302.76155108    -0.00029126  0.00484312  0.00644123  0.00030673  0.13464370  0.17928360  0.05976120    596.50
  20  -302.76155108  -302.76168472    -0.00013364  0.00188222  0.00376862  0.00017946  0.11291242  0.15233164  0.05077721    624.91
  21  -302.76168472  -302.76175064    -0.00006592  0.00301402  0.00392032  0.00018668  0.10457418  0.11075034  0.03691678    651.16
  22  -302.76175064  -302.76181306    -0.00006242  0.00193463  0.00270495  0.00012881  0.12852539  0.12987687  0.04329229    681.45
  23  -302.76181306  -302.76186977    -0.00005671  0.00117042  0.00236297  0.00011252  0.13679547  0.14133597  0.04711199    719.79
  24  -302.76186977  -302.76189857    -0.00002879  0.00163859  0.00332342  0.00015826  0.07243471  0.08014206  0.02671402    746.82
  25  -302.76189857  -302.76190985    -0.00001128  0.00211056  0.00310363  0.00014779  0.04788009  0.05076788  0.01692263    772.43
  26  -302.76190985  -302.76191238    -0.00000253  0.00061067  0.00127117  0.00006053  0.00503502  0.00970007  0.00323336    799.76
  27  -302.76191238  -302.76191435    -0.00000197  0.00060049  0.00103738  0.00004940  0.02286948  0.02436570  0.00812190    827.16
  28  -302.76191435  -302.76191508    -0.00000073  0.00058863  0.00068953  0.00003283  0.00693000  0.00741754  0.00247251    855.13
  29  -302.76191508  -302.76191539    -0.00000030  0.00035872  0.00042924  0.00002044  0.00609658  0.00637512  0.00212504    880.40
  30  -302.76191539  -302.76191542    -0.00000003  0.00008648  0.00015448  0.00000736  0.00098753  0.00116873  0.00038958    901.85

 END OF GEOMETRY OPTIMIZATION.

 Geometry written to block  1 of record 700

 Recomputing wavefunction for reoriented structure

 Current geometry (xyz format, in Angstrom)

    9
 HF-SCF000/6-311G(D,P)  ENERGY=-302.76191542
 C         -0.0000372707       -0.0871498165       -0.4399213642
 O          0.0000237183       -1.2700263655       -0.4466177907
 O          0.0000257044        0.6757704445        0.6194228450
 O          0.0000177548        0.6645510446       -1.5216014041
 H         -0.0003191005        0.0909196923       -2.2712707005
 C         -0.0000153821        0.0184773300        1.8762982131
 H          0.8826451275       -0.5971491035        1.9804035550
 H          0.0001339228        0.8051318131        2.6140517419
 H         -0.8828991777       -0.5968651812        1.9804931617

 **********************************************************************************************************************************


 **********************************************************************************************************************************
 DATASETS  * FILE   NREC   LENGTH (MB)   RECORD NAMES
              1      18       29.18       500      610      700      900      950      970     1000      129      960     1100   
                                          VAR    BASINP    GEOM    SYMINP    ZMAT    AOBASIS   BASIS     P2S    ABASIS      S 
                                         1400     1410     1200     1210     1080     1600     1650     1700   
                                           T        V       H0       H01     AOSYM     SMH    MOLCAS    OPER   

              2       4        0.69       700     1000      520     2100   
                                         GEOM     BASIS   MCVARS     RHF  

 PROGRAMS   *        TOTAL      OPTG    HF-SCF       INT
 CPU TIMES  *       965.64    922.71     39.84      2.76
 REAL TIME  *       418.74 SEC
 DISK USED  *        30.82 MB (local),      591.54 MB (total)
 SF USED    *         0.11 MB
 GA USED    *         0.00 MB       (max)       0.00 MB       (current)
 **********************************************************************************************************************************


 PROGRAM * HESSIAN

 PROGRAM * MCKINLEY (Hessian of the energy)     Author: A. Bernhardsson, R. Lindh

 Orbitals from record         2100.2

 Number of closed-shell orbitals: 20 ( 20 )
 Number of occupied orbitals:     20 ( 20 )

 Number of electrons= 40     Singlet     Space symmetry=1      Wavefunction type: CLOSED          


 McKinley needed    328.78 seconds of CPU time

 Entering CPHF calculation

 CPHF needed 230 iterations for 27 perturbations.  Total CPU time:  100.49 sec


 HF-SCF hessian saved to record  5300.2

 PROGRAM * FREQUENCIES (Calculation of harmonic vibrational spectra for HF-SCF)


 Permanent Dipole Moment [debye]
 1-3    0.000000    0.000000    0.000000

 Dipole Moment Norm    0.0000000 [debye]

 Dipole Moment Derivatives [debye/ang]
              1             2             3             4             5             6             7             8
    1    0.00000000    0.00000000    0.00000000    0.00000000    0.00000000    0.00000000    0.00000000    0.00000000
    2    0.00000000    0.00000000    0.00000000    0.00000000    0.00000000    0.00000000    0.00000000    0.00000000
    3    0.00000000    0.00000000    0.00000000    0.00000000    0.00000000    0.00000000    0.00000000    0.00000000
              9            10            11            12            13            14            15            16
    1    0.00000000    0.00000000    0.00000000    0.00000000    0.00000000    0.00000000    0.00000000    0.00000000
    2    0.00000000    0.00000000    0.00000000    0.00000000    0.00000000    0.00000000    0.00000000    0.00000000
    3    0.00000000    0.00000000    0.00000000    0.00000000    0.00000000    0.00000000    0.00000000    0.00000000
             17            18            19            20            21            22            23            24
    1    0.00000000    0.00000000    0.00000000    0.00000000    0.00000000    0.00000000    0.00000000    0.00000000
    2    0.00000000    0.00000000    0.00000000    0.00000000    0.00000000    0.00000000    0.00000000    0.00000000
    3    0.00000000    0.00000000    0.00000000    0.00000000    0.00000000    0.00000000    0.00000000    0.00000000
             25            26            27
    1    0.00000000    0.00000000    0.00000000
    2    0.00000000    0.00000000    0.00000000
    3    0.00000000    0.00000000    0.00000000

 Projecting out rotations and translations

 Force Constants (Second Derivatives of the Energy) in [a.u.]
                             CX1         CY1         CZ1         OX2         OY2     
           CX1           0.2981239
           CY1          -0.0000122   1.2399012
           CZ1           0.0000217   0.0022244   0.8313932
           OX2          -0.1169186   0.0000492  -0.0000028   0.0483900
           OY2           0.0000303  -0.8357352   0.0007636  -0.0000391   1.0116552
           OZ2          -0.0000021   0.0003297  -0.1470330  -0.0000003   0.0009483
           OX3          -0.0921870  -0.0000160  -0.0000084   0.0380163   0.0000046
           OY3          -0.0000086  -0.2294981  -0.0941540  -0.0000038  -0.0838908
           OZ3          -0.0000061  -0.1039018  -0.2875511  -0.0000017  -0.0684145
           OX4          -0.0896462  -0.0000174  -0.0000085   0.0383319   0.0000036
           OY4          -0.0000228  -0.2269049   0.0832881  -0.0000073  -0.0810196
           OZ4           0.0000024   0.1231139  -0.2875078   0.0000024   0.0573323
           HX5           0.0016979  -0.0000038   0.0000066  -0.0048233   0.0000005
           HY5           0.0000120   0.0292993   0.0277495   0.0000015  -0.0059873
           HZ5          -0.0000167  -0.0304427  -0.0492826   0.0000035  -0.0056854
           CX6          -0.0019045  -0.0000005  -0.0000071  -0.0050461   0.0000002
           CY6           0.0000011   0.0334086  -0.0154224  -0.0000037  -0.0103997
           CZ6          -0.0000008  -0.0175735  -0.0720156  -0.0000018   0.0236789
           HX7           0.0004515   0.0044201   0.0015774   0.0005760  -0.0022800
           HY7           0.0000920  -0.0027708  -0.0040198  -0.0003368   0.0017056
           HZ7          -0.0030862   0.0092205   0.0062827   0.0006586  -0.0034083
           HX8          -0.0000679   0.0000000   0.0000004   0.0008997   0.0000001
           HY8           0.0000001  -0.0049294   0.0035902   0.0000002   0.0019661
           HZ8          -0.0000001   0.0078094  -0.0005681  -0.0000000  -0.0018075
           HX9           0.0004509  -0.0044194  -0.0015793   0.0005742   0.0022797
           HY9          -0.0000920  -0.0027707  -0.0040196   0.0003398   0.0017057
           HZ9           0.0030880   0.0092201   0.0062824  -0.0006579  -0.0034075
                             OZ2         OX3         OY3         OZ3         OX4     
           OZ2           0.1407929
           OX3           0.0000016   0.0922447
           OY3          -0.0698410   0.0000138   0.4475561
           OZ3          -0.0057773  -0.0000002   0.0530736   0.6960279
           OX4          -0.0000045   0.0163533   0.0000055  -0.0000088   0.0459178
           OY4           0.0767511   0.0000050   0.0266820  -0.0285443   0.0001529
           OZ4          -0.0030298  -0.0000000   0.0204693  -0.1089113   0.0001716
           HX5           0.0000034   0.0031523  -0.0000017   0.0000039  -0.0143428
           HY5          -0.0017232  -0.0000020  -0.0028363   0.0072729  -0.0001433
           HZ5           0.0098201  -0.0000000   0.0058459  -0.0032867  -0.0001492
           CX6          -0.0000001  -0.0761276  -0.0000030   0.0000081   0.0039680
           CY6          -0.0047318  -0.0000022  -0.1534502   0.0894806   0.0000004
           CZ6           0.0051986   0.0000068   0.0550326  -0.2054829  -0.0000024
           HX7           0.0013307   0.0087254  -0.0026199  -0.0041448  -0.0003265
           HY7           0.0000801   0.0126269  -0.0111887   0.0136160  -0.0000519
           HZ7          -0.0002465  -0.0321342   0.0270735  -0.0222021   0.0008458
           HX8           0.0000006   0.0010957   0.0000018   0.0000017   0.0000694
           HY8          -0.0018951   0.0000034   0.0178101   0.0238001  -0.0000001
           HZ8           0.0005211  -0.0000047  -0.0245618  -0.0406108  -0.0000001
           HX9          -0.0013294   0.0087268   0.0026159   0.0041479  -0.0003249
           HY9           0.0000819  -0.0126335  -0.0111840   0.0136173   0.0000502
           HZ9          -0.0002460   0.0321391   0.0270620  -0.0222056  -0.0008439
                             OY4         OZ4         HX5         HY5         HZ5     
           OY4           0.5609402
           OZ4           0.1045210   0.7817026
           HX5          -0.0001276  -0.0001780   0.0124405
           HY5          -0.2770613  -0.2984720   0.0001323   0.2556431
           HZ5          -0.2329911  -0.3850538   0.0001637   0.2641657   0.4287824
           CX6           0.0000000   0.0000005   0.0019716  -0.0000005  -0.0000010
           CY6          -0.0041482  -0.0093813   0.0000006   0.0011484  -0.0010829
           CZ6          -0.0009025   0.0089377  -0.0000000   0.0005379  -0.0006575
           HX7          -0.0007754  -0.0002076  -0.0000581   0.0000767  -0.0000916
           HY7           0.0002212   0.0008574  -0.0000966  -0.0000123  -0.0000552
           HZ7          -0.0005883  -0.0015736   0.0002547   0.0000493  -0.0000673
           HX8           0.0000002   0.0000002   0.0000201  -0.0000001  -0.0000001
           HY8           0.0010691   0.0007019  -0.0000001  -0.0001811   0.0003010
           HZ8          -0.0009469  -0.0029906   0.0000003   0.0003704  -0.0001872
           HX9           0.0007749   0.0002085  -0.0000581  -0.0000766   0.0000913
           HY9           0.0002217   0.0008575   0.0000965  -0.0000125  -0.0000553
           HZ9          -0.0005872  -0.0015734  -0.0002546   0.0000495  -0.0000674
                             CX6         CY6         CZ6         HX7         HY7     
           CX6           0.6664961
           CY6          -0.0000384   0.6654389
           CZ6           0.0000124   0.0771900   0.5679504
           HX7          -0.2625276   0.1336063  -0.0171037   0.2721667
           HY7           0.1314504  -0.1503383   0.0102803  -0.1480580   0.1595158
           HZ7          -0.0067550   0.0022942  -0.0606435   0.0180435  -0.0202775
           HX8          -0.0642552  -0.0000307  -0.0000298   0.0035020   0.0219550
           HY8          -0.0000309  -0.2314281  -0.1585242  -0.0019616  -0.0117157
           HZ8          -0.0000265  -0.1406456  -0.1826360   0.0013274   0.0019257
           HX9          -0.2625746  -0.1335334   0.0171192  -0.0225094  -0.0175810
           HY9          -0.1313774  -0.1502313   0.0102806   0.0175918   0.0145831
           HZ9           0.0067686   0.0022992  -0.0606511  -0.0007314  -0.0024071
                             HZ7         HX8         HY8         HZ8         HX9     
           HZ7           0.0704891
           HX8           0.0214400   0.0552442
           HY8          -0.0119547   0.0000346   0.2391190
           HZ8           0.0052782   0.0000304   0.1559286   0.2159136
           HX9           0.0007328   0.0034921   0.0019544  -0.0013266   0.2722231
           HY9          -0.0024088  -0.0219610  -0.0117099   0.0019275   0.1479855
           HZ9           0.0026830  -0.0214434  -0.0119479   0.0052799  -0.0180644
                             HY9         HZ9     
           HY9           0.1593981
           HZ9          -0.0202811   0.0704981


 Atomic Masses
 1-9   12.000000   15.994910   15.994910   15.994910    1.007825   12.000000    1.007825    1.007825    1.007825

 Mass weighted Second Derivative Matrix
                             CX1         CY1         CZ1         OX2         OY2     
           CX1           0.0248437
           CY1          -0.0000010   0.1033251
           CZ1           0.0000018   0.0001854   0.0692828
           OX2          -0.0084392   0.0000036  -0.0000002   0.0030253
           OY2           0.0000022  -0.0603236   0.0000551  -0.0000024   0.0632486
           OZ2          -0.0000002   0.0000238  -0.0106129  -0.0000000   0.0000593
           OX3          -0.0066541  -0.0000012  -0.0000006   0.0023768   0.0000003
           OY3          -0.0000006  -0.0165652  -0.0067961  -0.0000002  -0.0052448
           OZ3          -0.0000004  -0.0074997  -0.0207555  -0.0000001  -0.0042773
           OX4          -0.0064707  -0.0000013  -0.0000006   0.0023965   0.0000002
           OY4          -0.0000016  -0.0163781   0.0060118  -0.0000005  -0.0050653
           OZ4           0.0000002   0.0088864  -0.0207524   0.0000001   0.0035844
           HX5           0.0004882  -0.0000011   0.0000019  -0.0012013   0.0000001
           HY5           0.0000035   0.0084251   0.0079794   0.0000004  -0.0014912
           HZ5          -0.0000048  -0.0087539  -0.0141713   0.0000009  -0.0014161
           CX6          -0.0001587  -0.0000000  -0.0000006  -0.0003642   0.0000000
           CY6           0.0000001   0.0027840  -0.0012852  -0.0000003  -0.0007507
           CZ6          -0.0000001  -0.0014645  -0.0060013  -0.0000001   0.0017091
           HX7           0.0001298   0.0012710   0.0004536   0.0001435  -0.0005679
           HY7           0.0000265  -0.0007968  -0.0011559  -0.0000839   0.0004248
           HZ7          -0.0008874   0.0026514   0.0018066   0.0001640  -0.0008489
           HX8          -0.0000195   0.0000000   0.0000001   0.0002241   0.0000000
           HY8           0.0000000  -0.0014175   0.0010324   0.0000000   0.0004897
           HZ8          -0.0000000   0.0022456  -0.0001634  -0.0000000  -0.0004502
           HX9           0.0001297  -0.0012708  -0.0004541   0.0001430   0.0005678
           HY9          -0.0000264  -0.0007967  -0.0011559   0.0000846   0.0004248
           HZ9           0.0008880   0.0026513   0.0018065  -0.0001639  -0.0008487
                             OZ2         OX3         OY3         OZ3         OX4     
           OZ2           0.0088024
           OX3           0.0000001   0.0057671
           OY3          -0.0043665   0.0000009   0.0279812
           OZ3          -0.0003612  -0.0000000   0.0033182   0.0435156
           OX4          -0.0000003   0.0010224   0.0000003  -0.0000005   0.0028708
           OY4           0.0047985   0.0000003   0.0016682  -0.0017846   0.0000096
           OZ4          -0.0001894  -0.0000000   0.0012797  -0.0068091   0.0000107
           HX5           0.0000009   0.0007851  -0.0000004   0.0000010  -0.0035723
           HY5          -0.0004292  -0.0000005  -0.0007064   0.0018114  -0.0000357
           HZ5           0.0024459  -0.0000000   0.0014560  -0.0008186  -0.0000372
           CX6          -0.0000000  -0.0054949  -0.0000002   0.0000006   0.0002864
           CY6          -0.0003415  -0.0000002  -0.0110761   0.0064587   0.0000000
           CZ6           0.0003752   0.0000005   0.0039723  -0.0148318  -0.0000002
           HX7           0.0003314   0.0021732  -0.0006525  -0.0010323  -0.0000813
           HY7           0.0000199   0.0031449  -0.0027867   0.0033913  -0.0000129
           HZ7          -0.0000614  -0.0080036   0.0067431  -0.0055298   0.0002107
           HX8           0.0000002   0.0002729   0.0000004   0.0000004   0.0000173
           HY8          -0.0004720   0.0000009   0.0044359   0.0059278  -0.0000000
           HZ8           0.0001298  -0.0000012  -0.0061175  -0.0101148  -0.0000000
           HX9          -0.0003311   0.0021736   0.0006515   0.0010331  -0.0000809
           HY9           0.0000204  -0.0031466  -0.0027856   0.0033916   0.0000125
           HZ9          -0.0000613   0.0080048   0.0067402  -0.0055307  -0.0002102
                             OY4         OZ4         HX5         HY5         HZ5     
           OY4           0.0350699
           OZ4           0.0065346   0.0488720
           HX5          -0.0000318  -0.0000443   0.0123439
           HY5          -0.0690069  -0.0743396   0.0001313   0.2536582
           HZ5          -0.0580304  -0.0959043   0.0001624   0.2621147   0.4254532
           CX6           0.0000000   0.0000000   0.0005669  -0.0000001  -0.0000003
           CY6          -0.0002994  -0.0006771   0.0000002   0.0003302  -0.0003114
           CZ6          -0.0000651   0.0006451  -0.0000000   0.0001547  -0.0001891
           HX7          -0.0001931  -0.0000517  -0.0000577   0.0000761  -0.0000909
           HY7           0.0000551   0.0002136  -0.0000959  -0.0000122  -0.0000548
           HZ7          -0.0001465  -0.0003919   0.0002528   0.0000489  -0.0000668
           HX8           0.0000001   0.0000001   0.0000199  -0.0000001  -0.0000001
           HY8           0.0002663   0.0001748  -0.0000001  -0.0001797   0.0002987
           HZ8          -0.0002358  -0.0007449   0.0000003   0.0003675  -0.0001858
           HX9           0.0001930   0.0000519  -0.0000577  -0.0000760   0.0000906
           HY9           0.0000552   0.0002136   0.0000957  -0.0000124  -0.0000549
           HZ9          -0.0001463  -0.0003919  -0.0002527   0.0000491  -0.0000668
                             CX6         CY6         CZ6         HX7         HY7     
           CX6           0.0555413
           CY6          -0.0000032   0.0554532
           CZ6           0.0000010   0.0064325   0.0473292
           HX7          -0.0754904   0.0384188  -0.0049182   0.2700536
           HY7           0.0377989  -0.0432301   0.0029561  -0.1469084   0.1582773
           HZ7          -0.0019424   0.0006597  -0.0174382   0.0179034  -0.0201200
           HX8          -0.0184767  -0.0000088  -0.0000086   0.0034748   0.0217846
           HY8          -0.0000089  -0.0665477  -0.0455840  -0.0019464  -0.0116247
           HZ8          -0.0000076  -0.0404430  -0.0525174   0.0013171   0.0019108
           HX9          -0.0755039  -0.0383978   0.0049227  -0.0223346  -0.0174445
           HY9          -0.0377779  -0.0431994   0.0029562   0.0174552   0.0144698
           HZ9           0.0019463   0.0006611  -0.0174404  -0.0007257  -0.0023884
                             HZ7         HX8         HY8         HZ8         HX9     
           HZ7           0.0699418
           HX8           0.0212735   0.0548153
           HY8          -0.0118619   0.0000344   0.2372624
           HZ8           0.0052372   0.0000301   0.1547180   0.2142372
           HX9           0.0007271   0.0034650   0.0019392  -0.0013163   0.2701095
           HY9          -0.0023901  -0.0217905  -0.0116190   0.0019125   0.1468365
           HZ9           0.0026622  -0.0212769  -0.0118551   0.0052389  -0.0179242
                             HY9         HZ9     
           HY9           0.1581605
           HZ9          -0.0201236   0.0699507


 Mass Weighted 2nd Derivative Matrix Eigenvalues
 1-10    0.000000    0.000000    0.000000    0.000000    0.000000    0.000000    0.000791    0.001362    0.003865    0.012637
 11-20    0.013349    0.020622    0.031407    0.038736    0.056579    0.063130    0.067900    0.070232    0.090630    0.098466
 21-27    0.099263    0.100631    0.151367    0.390191    0.409482    0.415966    0.652585

 Mass Weighted 2nd Derivative Matrix Eigenvectors
              1             2             3             4             5             6             7             8
    1    0.00000000    0.00000000    0.42498887    0.00000000    0.00000000    0.00000000   -0.07468936    0.12095859
    2    0.35298905    0.20634836   -0.00000212    0.00171649   -0.00986473   -0.07617532    0.00001286   -0.00001508
    3    0.16879910   -0.22099048   -0.00000412   -0.02751914   -0.14813600    0.24171748   -0.00000099   -0.00000184
    4   -0.04240280   -0.05467220    0.56927672   -0.52303569   -0.37216212   -0.30799713   -0.25919381    0.04435986
    5    0.40861451    0.23725035    0.00000156    0.00201460   -0.01042618   -0.08922529    0.00000808   -0.00001847
    6    0.00324340   -0.08211671    0.00000302   -0.04234251   -0.34449128    0.50229505    0.00003315   -0.00003403
    7    0.01375503   -0.00993542    0.30544828    0.58134512    0.00309540    0.04941012   -0.19271016    0.63976706
    8    0.23590433    0.39317872    0.00000169   -0.00750062   -0.16677124    0.11194572    0.00001554   -0.00004698
    9    0.31848355   -0.36672594    0.00000328   -0.02497687   -0.05912226    0.13510584   -0.00000560    0.00000222
   10    0.04093814    0.08126495    0.57913668    0.08123012    0.48038360    0.34933902    0.24135460   -0.34720945
   11    0.58277369    0.08001409    0.00000117    0.01161138    0.14723171   -0.29208289   -0.00000475    0.00002613
   12    0.31666578   -0.36508524    0.00000226   -0.02507516   -0.06076947    0.13722192   -0.00000702    0.00001476
   13    0.00752857    0.02177029    0.17882930   -0.08661159    0.11735930    0.07670108    0.05871161   -0.15118157
   14    0.17677569   -0.00743597   -0.00000527    0.00463141    0.06458240   -0.10880654    0.00001258    0.00001111
   15    0.05615908   -0.07058456   -0.00001021   -0.00755982   -0.03639064    0.06160531   -0.00001153    0.00002837
   16   -0.02256294   -0.08169596    0.16320834    0.50432741   -0.42165745   -0.25989551    0.21892476   -0.32661635
   17    0.02795837    0.49979543   -0.00000088   -0.01619727   -0.30410151    0.30241241   -0.00003588    0.00003825
   18    0.18362177   -0.23437184   -0.00000170   -0.02670698   -0.13471386    0.22445510   -0.00001808    0.00000369
   19   -0.01242631   -0.03197509    0.05412614    0.08407145   -0.17688220   -0.11937567    0.34331913   -0.03565749
   20   -0.00408982    0.13836995    0.01456597   -0.10260583   -0.16195242    0.03470350    0.41804764    0.12475664
   21    0.03103287   -0.03582655    0.02824558   -0.06036105   -0.01194541    0.12555037    0.12642708    0.24722961
   22   -0.00183196   -0.02243459    0.01070740    0.27603914   -0.10140919   -0.04994067   -0.40409314   -0.40999864
   23   -0.02190141    0.17192739    0.00000221   -0.00636332   -0.11530067    0.12257671    0.00007438    0.00005532
   24    0.08520564   -0.09680258    0.00000429   -0.00598607   -0.01007226    0.02778987    0.00000155    0.00001927
   25   -0.01242404   -0.03197275    0.05411858    0.08410807   -0.17686474   -0.11936023    0.34314794   -0.03572832
   26    0.01182562    0.15896437   -0.01457016    0.09277587   -0.02195687    0.15045779   -0.41813031   -0.12474637
   27    0.02533424   -0.05482285   -0.02825371    0.04213678   -0.11146459    0.06284674   -0.12643305   -0.24721570
              9            10            11            12            13            14            15            16
    1    0.00002090    0.00011928   -0.12711905   -0.00012286    0.88470653    0.00003604   -0.00001681    0.01643983
    2    0.20107017   -0.23543946   -0.00025436    0.02579814    0.00001819   -0.24378393   -0.09826722   -0.00001152
    3    0.05877014    0.00033472    0.00005946   -0.26850010   -0.00004255   -0.11030562    0.16111014    0.00001165
    4    0.00000098    0.00005902   -0.03447917    0.00002939   -0.30611882   -0.00001919   -0.00000131   -0.01208470
    5    0.22782686   -0.28975359   -0.00033874    0.04907507   -0.00004428   -0.43196998   -0.20096193   -0.00003059
    6    0.49723451    0.30996260    0.00021737    0.51299661    0.00006560   -0.02913397   -0.00991355   -0.00000846
    7    0.00007253   -0.00014966    0.12487350    0.00005286   -0.22868754    0.00002895   -0.00000453   -0.22315005
    8    0.30566202   -0.00422585    0.00008288   -0.41840869   -0.00006201    0.56874082   -0.17090492    0.00006641
    9    0.00591180   -0.30557843   -0.00036256   -0.07714996   -0.00003150    0.01568222    0.63221657    0.00003145
   10   -0.00003986    0.00028185   -0.24103795   -0.00006150   -0.24496548   -0.00005033    0.00000108   -0.00071016
   11   -0.16531810    0.33147151    0.00035937    0.35819922    0.00011921    0.15140256    0.19220078    0.00000975
   12   -0.18611709    0.47709527    0.00078278   -0.41819702   -0.00001210   -0.20617244   -0.36082979   -0.00002016
   13   -0.00002346   -0.00111286    0.95294907    0.00029033    0.07650208    0.00009411    0.00002153    0.00790419
   14   -0.11661892    0.29039716   -0.00003758    0.17294324   -0.00013488    0.22494403   -0.03705935    0.00000072
   15    0.01003029   -0.03557935   -0.00014910   -0.17012616    0.00005958   -0.19357803   -0.03188686   -0.00000764
   16   -0.00003617   -0.00001613    0.02296689    0.00001286   -0.02104155   -0.00001505    0.00001645    0.41885538
   17   -0.43208911    0.09380821    0.00013199   -0.08892475   -0.00000201   -0.06826674    0.32186181   -0.00004291
   18   -0.31968292   -0.44081195   -0.00060502    0.22535010   -0.00000033    0.36702390   -0.37982135   -0.00003814
   19   -0.00456533   -0.00397183    0.00339495    0.00551363    0.01146588   -0.00883253   -0.02801786   -0.15015641
   20   -0.14853938    0.01966768   -0.00304130   -0.00192048    0.01819522   -0.05627790    0.03455159   -0.31548337
   21   -0.20890164   -0.12671102    0.01156246    0.15430484   -0.04084151   -0.04948095   -0.17093534    0.47823871
   22   -0.00001990    0.00000826   -0.00022420    0.00001460    0.02684594   -0.00001193   -0.00000891   -0.26978392
   23   -0.25586006    0.00962020   -0.00000476    0.09304025    0.00002278   -0.18359264   -0.08778778    0.00000976
   24    0.04507942   -0.10922969   -0.00012875   -0.05985368   -0.00003164    0.28157019    0.08674303    0.00004525
   25    0.00452737    0.00395873    0.00340569   -0.00552170    0.01146095    0.00883954    0.02802547   -0.15004629
   26   -0.14854287    0.01967040    0.00309353   -0.00187931   -0.01819043   -0.05633026    0.03450898    0.31547918
   27   -0.20887867   -0.12667850   -0.01194207    0.15425687    0.04087393   -0.04940985   -0.17088896   -0.47819619
             17            18            19            20            21            22            23            24
    1   -0.00001838    0.00012884    0.00006798   -0.00630351    0.00003564    0.00002621   -0.00000722   -0.00000016
    2    0.04866405   -0.00466610   -0.00446316   -0.00010874   -0.04983224   -0.06306458    0.80763819   -0.01128450
    3   -0.04579848   -0.31567683    0.65616766    0.00060476    0.26006798    0.35605514    0.03238458   -0.00792410
    4   -0.00000195   -0.00003265   -0.00001501    0.00319046   -0.00000816   -0.00001215    0.00002851    0.00000131
    5    0.12255937    0.28014639    0.07612847    0.00018328    0.08445529    0.07797828   -0.53931481    0.00566251
    6    0.04410525    0.00215589   -0.09192897   -0.00005891   -0.02377850   -0.04528403   -0.00515632   -0.00009880
    7   -0.00002208   -0.00002161   -0.00001056   -0.04323644    0.00006553    0.00001674   -0.00000818    0.00000390
    8   -0.31697713   -0.06908766   -0.09071699   -0.00015156   -0.07602453    0.00306339   -0.09433801    0.00074583
    9   -0.28820144    0.24573448   -0.18759719   -0.00036030   -0.16318296   -0.18673778   -0.04662536    0.00857110
   10    0.00002047   -0.00010056   -0.00005180    0.00131657   -0.00001596   -0.00000825   -0.00001537   -0.00000052
   11    0.02436626   -0.43180085   -0.05321608    0.00000463    0.00299156    0.01468622   -0.10881683    0.00083172
   12    0.07513080    0.18049350   -0.19587037   -0.00017242   -0.07330903   -0.10553608    0.04187504    0.00136341
   13   -0.00003102    0.00012063    0.00008656    0.00035931    0.00002382    0.00003012    0.00000550   -0.00000067
   14   -0.12999274    0.54957615    0.31344080    0.00017436    0.07367370    0.08665708    0.11244562   -0.00039324
   15    0.12030955   -0.43791762   -0.28249003   -0.00016388   -0.06906355   -0.08425183   -0.09072660    0.00159175
   16    0.00007123    0.00001778    0.00002098   -0.18988055    0.00033203    0.00002718   -0.00000269   -0.00050004
   17    0.32284929    0.12905237   -0.06907484   -0.00015090   -0.11577839    0.16698170    0.02511891   -0.10132127
   18    0.26262791   -0.07279641    0.19534700   -0.00028078   -0.14859756   -0.20969917   -0.03226487    0.11548536
   19   -0.08384261   -0.02725207    0.03616969    0.06054117    0.27509071   -0.29545752   -0.01582352   -0.51079526
   20   -0.09194452   -0.00884731   -0.00877849    0.20542779    0.41709748   -0.32412257    0.00955107    0.34635793
   21   -0.34084257   -0.02053061   -0.26908753    0.42797537    0.18382756    0.37541079    0.04059977   -0.05165035
   22   -0.00007680   -0.00000886   -0.00004402    0.71084527   -0.00137911   -0.00012414   -0.00000160   -0.00009033
   23   -0.29058990   -0.08167913    0.22792885   -0.00085981   -0.38280249   -0.17827156   -0.04721408   -0.33363054
   24    0.48628822    0.11285037   -0.22375334    0.00067397    0.35199839    0.17299891    0.04858131   -0.30842601
   25    0.08378227    0.02725114   -0.03621097    0.05950286   -0.27516908    0.29538187    0.01583407    0.51259356
   26   -0.09197448   -0.00886629   -0.00871842   -0.20399121    0.41798754   -0.32420368    0.00953907    0.34738341
   27   -0.34082720   -0.02052460   -0.26904061   -0.42724645    0.18546220    0.37558787    0.04059856   -0.05185278
             25            26            27
    1    0.00016183   -0.00000063   -0.00000140
    2    0.00000442   -0.00444764   -0.00238166
    3    0.00001964    0.00316547   -0.00575228
    4    0.00086863   -0.00000196    0.00000051
    5   -0.00000262    0.00203905   -0.00311595
    6   -0.00000165   -0.00093478    0.00169295
    7    0.00212271   -0.00000528   -0.00000022
    8    0.00000429    0.00211272    0.00055134
    9   -0.00000946    0.00076835    0.00351275
   10   -0.00035290    0.00000102   -0.00008341
   11    0.00000131    0.00099469   -0.13974605
   12   -0.00000301   -0.00039712   -0.19640413
   13   -0.00035330    0.00000068    0.00033721
   14   -0.00000113   -0.00075864    0.57453594
   15   -0.00000214   -0.00002717    0.78213797
   16   -0.31531085    0.00079749   -0.00000014
   17   -0.00052691   -0.27517848    0.00018503
   18   -0.00057376   -0.15158789   -0.00041844
   19    0.54586837   -0.25627712    0.00012177
   20   -0.38709738    0.16098282   -0.00023574
   21    0.05060768   -0.02905536    0.00009720
   22   -0.01435129    0.00015546   -0.00000016
   23    0.00219698    0.62533738    0.00045392
   24    0.00201556    0.57228282    0.00065829
   25    0.54578702    0.25339606   -0.00012236
   26    0.38669251    0.15882145   -0.00023610
   27   -0.05065282   -0.02880478    0.00009712

   Low Vibration      Wavenumber
        Nr             [1/cm] 
        1                0.00
        2                0.00
        3                0.00
        4                0.00
        5                0.00
        6                0.00

     Vibration        Wavenumber
        Nr             [1/cm] 
        1              144.55
        2              189.72
        3              319.60
        4              577.86
        5              593.92
        6              738.20
        7              911.00
        8             1011.72
        9             1222.73
       10             1291.59
       11             1339.49
       12             1362.30
       13             1547.54
       14             1613.05
       15             1619.56
       16             1630.68
       17             1999.95
       18             3211.02
       19             3289.44
       20             3315.38
       21             4152.63

 FREQUENCIES * CALCULATION OF NORMAL MODES FOR HF-SCF


 Atomic Coordinates

  Nr  Atom  Charge       X              Y              Z

   1   C     6.00   -0.000070431   -0.164689285   -0.831330895
   2   O     8.00    0.000044821   -2.400002002   -0.843985307
   3   O     8.00    0.000048574    1.277021063    1.170539532
   4   O     8.00    0.000033552    1.255819470   -2.875409925
   5   H     1.00   -0.000603013    0.171813318   -4.292079579
   6   C     6.00   -0.000029068    0.034917093    3.545689751
   7   H     1.00    1.667957556   -1.128448261    3.742420335
   8   H     1.00    0.000253077    1.521478621    4.939841868
   9   H     1.00   -1.668437641   -1.127911726    3.742589667

 Gradient norm at reference geometry: 0.15448D-03

 Normal Modes

                              1 A         2 A         3 A         4 A         5 A  
 Wavenumbers [cm-1]          144.55      189.72      319.60      577.86      593.92
 Intensities [km/mol]          0.00        0.00        0.00        0.00        0.00
 Intensities [relative]        0.00        0.00        0.00        0.00        0.00
           CX1             -0.02156     0.03492     0.00001     0.00003    -0.03670
           CY1              0.00000    -0.00000     0.05804    -0.06797    -0.00007
           CZ1             -0.00000    -0.00000     0.01697     0.00010     0.00002
           OX2             -0.06481     0.01109     0.00000     0.00001    -0.00862
           OY2              0.00000    -0.00000     0.05697    -0.07245    -0.00008
           OZ2              0.00001    -0.00001     0.12433     0.07750     0.00005
           OX3             -0.04819     0.15997     0.00002    -0.00004     0.03122
           OY3              0.00000    -0.00001     0.07643    -0.00106     0.00002
           OZ3             -0.00000     0.00000     0.00148    -0.07641    -0.00009
           OX4              0.06035    -0.08682    -0.00001     0.00007    -0.06027
           OY4             -0.00000     0.00001    -0.04134     0.08288     0.00009
           OZ4             -0.00000     0.00000    -0.04654     0.11929     0.00020
           HX5              0.05848    -0.15059    -0.00002    -0.00111     0.94924
           HY5              0.00001     0.00001    -0.11617     0.28927    -0.00004
           HZ5             -0.00001     0.00003     0.00999    -0.03544    -0.00015
           CX6              0.06320    -0.09429    -0.00001    -0.00000     0.00663
           CY6             -0.00001     0.00001    -0.12473     0.02708     0.00004
           CZ6             -0.00001     0.00000    -0.09228    -0.12725    -0.00017
           HX7              0.34198    -0.03552    -0.00455    -0.00396     0.00338
           HY7              0.41642     0.12427    -0.14796     0.01959    -0.00303
           HZ7              0.12594     0.24627    -0.20809    -0.12622     0.01152
           HX8             -0.40252    -0.40840    -0.00002     0.00001    -0.00022
           HY8              0.00007     0.00006    -0.25486     0.00958    -0.00000
           HZ8              0.00000     0.00002     0.04490    -0.10880    -0.00013
           HX9              0.34181    -0.03559     0.00451     0.00394     0.00339
           HY9             -0.41650    -0.12426    -0.14797     0.01959     0.00308
           HZ9             -0.12594    -0.24625    -0.20807    -0.12619    -0.01190

                              6 A         7 A         8 A         9 A        10 A  
 Wavenumbers [cm-1]          738.20      911.00     1011.72     1222.73     1291.59
 Intensities [km/mol]          0.00        0.00        0.00        0.00        0.00
 Intensities [relative]        0.00        0.00        0.00        0.00        0.00
           CX1             -0.00004     0.25539     0.00001    -0.00000     0.00475
           CY1              0.00745     0.00001    -0.07037    -0.02837    -0.00000
           CZ1             -0.07751    -0.00001    -0.03184     0.04651     0.00000
           OX2              0.00001    -0.07654    -0.00000    -0.00000    -0.00302
           OY2              0.01227    -0.00001    -0.10801    -0.05025    -0.00001
           OZ2              0.12827     0.00002    -0.00728    -0.00248    -0.00000
           OX3              0.00001    -0.05718     0.00001    -0.00000    -0.05580
           OY3             -0.10462    -0.00002     0.14221    -0.04273     0.00002
           OZ3             -0.01929    -0.00001     0.00392     0.15808     0.00001
           OX4             -0.00002    -0.06125    -0.00001     0.00000    -0.00018
           OY4              0.08956     0.00003     0.03786     0.04806     0.00000
           OZ4             -0.10457    -0.00000    -0.05155    -0.09022    -0.00001
           HX5              0.00029     0.07620     0.00009     0.00002     0.00787
           HY5              0.17227    -0.00013     0.22407    -0.03692     0.00000
           HZ5             -0.16946     0.00006    -0.19283    -0.03176    -0.00001
           CX6              0.00000    -0.00607    -0.00000     0.00000     0.12091
           CY6             -0.02567    -0.00000    -0.01971     0.09291    -0.00001
           CZ6              0.06505    -0.00000     0.10595    -0.10964    -0.00001
           HX7              0.00549     0.01142    -0.00880    -0.02791    -0.14957
           HY7             -0.00191     0.01812    -0.05606     0.03442    -0.31426
           HZ7              0.15370    -0.04068    -0.04929    -0.17027     0.47638
           HX8              0.00001     0.02674    -0.00001    -0.00001    -0.26873
           HY8              0.09268     0.00002    -0.18288    -0.08745     0.00001
           HZ8             -0.05962    -0.00003     0.28047     0.08641     0.00005
           HX9             -0.00550     0.01142     0.00881     0.02792    -0.14946
           HY9             -0.00187    -0.01812    -0.05611     0.03437     0.31425
           HZ9              0.15366     0.04071    -0.04922    -0.17022    -0.47634

                             11 A        12 A        13 A        14 A        15 A  
 Wavenumbers [cm-1]         1339.49     1362.30     1547.54     1613.05     1619.56
 Intensities [km/mol]          0.00        0.00        0.00        0.00        0.00
 Intensities [relative]        0.00        0.00        0.00        0.00        0.00
           CX1             -0.00001     0.00004     0.00002    -0.00182     0.00001
           CY1              0.01405    -0.00135    -0.00129    -0.00003    -0.01439
           CZ1             -0.01322    -0.09113     0.18942     0.00017     0.07508
           OX2             -0.00000    -0.00001    -0.00000     0.00080    -0.00000
           OY2              0.03064     0.07005     0.01904     0.00005     0.02112
           OZ2              0.01103     0.00054    -0.02299    -0.00001    -0.00595
           OX3             -0.00001    -0.00001    -0.00000    -0.01081     0.00002
           OY3             -0.07926    -0.01727    -0.02268    -0.00004    -0.01901
           OZ3             -0.07206     0.06144    -0.04691    -0.00009    -0.04080
           OX4              0.00001    -0.00003    -0.00001     0.00033    -0.00000
           OY4              0.00609    -0.10797    -0.01331     0.00000     0.00075
           OZ4              0.01879     0.04513    -0.04898    -0.00004    -0.01833
           HX5             -0.00003     0.00012     0.00009     0.00036     0.00002
           HY5             -0.12949     0.54744     0.31222     0.00017     0.07339
           HZ5              0.11984    -0.43621    -0.28139    -0.00016    -0.06879
           CX6              0.00002     0.00001     0.00001    -0.05481     0.00010
           CY6              0.09320     0.03725    -0.01994    -0.00004    -0.03342
           CZ6              0.07581    -0.02101     0.05639    -0.00008    -0.04290
           HX7             -0.08352    -0.02715     0.03603     0.06031     0.27402
           HY7             -0.09159    -0.00881    -0.00874     0.20463     0.41548
           HZ7             -0.33952    -0.02045    -0.26804     0.42631     0.18311
           HX8             -0.00008    -0.00001    -0.00004     0.70808    -0.00137
           HY8             -0.28946    -0.08136     0.22704    -0.00086    -0.38131
           HZ8              0.48440     0.11241    -0.22288     0.00067     0.35063
           HX9              0.08346     0.02715    -0.03607     0.05927    -0.27410
           HY9             -0.09162    -0.00883    -0.00868    -0.20320     0.41636
           HZ9             -0.33950    -0.02044    -0.26799    -0.42558     0.18474

                             16 A        17 A        18 A        19 A        20 A  
 Wavenumbers [cm-1]         1630.68     1999.95     3211.02     3289.44     3315.38
 Intensities [km/mol]          0.00        0.00        0.00        0.00        0.00
 Intensities [relative]        0.00        0.00        0.00        0.00        0.00
           CX1              0.00001    -0.00000    -0.00000     0.00005    -0.00000
           CY1             -0.01821     0.23315    -0.00326     0.00000    -0.00128
           CZ1              0.10278     0.00935    -0.00229     0.00001     0.00091
           OX2             -0.00000     0.00001     0.00000     0.00022    -0.00000
           OY2              0.01950    -0.13485     0.00142    -0.00000     0.00051
           OZ2             -0.01132    -0.00129    -0.00002    -0.00000    -0.00023
           OX3              0.00000    -0.00000     0.00000     0.00053    -0.00000
           OY3              0.00077    -0.02359     0.00019     0.00000     0.00053
           OZ3             -0.04669    -0.01166     0.00214    -0.00000     0.00019
           OX4             -0.00000    -0.00000    -0.00000    -0.00009     0.00000
           OY4              0.00367    -0.02721     0.00021     0.00000     0.00025
           OZ4             -0.02639     0.01047     0.00034    -0.00000    -0.00010
           HX5              0.00003     0.00001    -0.00000    -0.00035     0.00000
           HY5              0.08632     0.11201    -0.00039    -0.00000    -0.00076
           HZ5             -0.08392    -0.09037     0.00159    -0.00000    -0.00003
           CX6              0.00001    -0.00000    -0.00014    -0.09102     0.00023
           CY6              0.04820     0.00725    -0.02925    -0.00015    -0.07944
           CZ6             -0.06053    -0.00931     0.03334    -0.00017    -0.04376
           HX7             -0.29431    -0.01576    -0.50881     0.54375    -0.25528
           HY7             -0.32286     0.00951     0.34501    -0.38559     0.16036
           HZ7              0.37395     0.04044    -0.05145     0.05041    -0.02894
           HX8             -0.00012    -0.00000    -0.00009    -0.01430     0.00015
           HY8             -0.17758    -0.04703    -0.33233     0.00219     0.62291
           HZ8              0.17233     0.04839    -0.30723     0.00201     0.57006
           HX9              0.29423     0.01577     0.51060     0.54366     0.25241
           HY9             -0.32294     0.00950     0.34603     0.38519     0.15820
           HZ9              0.37413     0.04044    -0.05165    -0.05046    -0.02869

                             21 A  
 Wavenumbers [cm-1]         4152.63
 Intensities [km/mol]          0.00
 Intensities [relative]        0.00
           CX1             -0.00000
           CY1             -0.00069
           CZ1             -0.00166
           OX2              0.00000
           OY2             -0.00078
           OZ2              0.00042
           OX3             -0.00000
           OY3              0.00014
           OZ3              0.00088
           OX4             -0.00002
           OY4             -0.03494
           OZ4             -0.04911
           HX5              0.00034
           HY5              0.57230
           HZ5              0.77910
           CX6             -0.00000
           CY6              0.00005
           CZ6             -0.00012
           HX7              0.00012
           HY7             -0.00023
           HZ7              0.00010
           HX8             -0.00000
           HY8              0.00045
           HZ8              0.00066
           HX9             -0.00012
           HY9             -0.00024
           HZ9              0.00010


 Normal Modes of low/zero frequencies

                                  1           2           3           4           5
 Wavenumbers [cm-1]            0.00        0.00        0.00        0.00        0.00
 Intensities [km/mol]          0.00        0.00        0.00        0.00        0.00
 Intensities [relative]        0.00        0.00        0.00        0.00        0.00
           CX1             -0.00000     0.00000     0.12268    -0.00000    -0.00000
           CY1              0.10190     0.05957    -0.00000     0.00050    -0.00285
           CZ1              0.04873    -0.06379    -0.00000    -0.00794    -0.04276
           OX2             -0.01060    -0.01367     0.14234    -0.13078    -0.09306
           OY2              0.10217     0.05932     0.00000     0.00050    -0.00261
           OZ2              0.00081    -0.02053     0.00000    -0.01059    -0.08614
           OX3              0.00344    -0.00248     0.07637     0.14536     0.00077
           OY3              0.05899     0.09831     0.00000    -0.00188    -0.04170
           OZ3              0.07963    -0.09170     0.00000    -0.00625    -0.01478
           OX4              0.01024     0.02032     0.14481     0.02031     0.12012
           OY4              0.14572     0.02001     0.00000     0.00290     0.03681
           OZ4              0.07918    -0.09129     0.00000    -0.00627    -0.01519
           HX5              0.00750     0.02169     0.17813    -0.08627     0.11690
           HY5              0.17609    -0.00741    -0.00001     0.00461     0.06433
           HZ5              0.05594    -0.07031    -0.00001    -0.00753    -0.03625
           CX6             -0.00651    -0.02358     0.04711     0.14559    -0.12172
           CY6              0.00807     0.14428    -0.00000    -0.00468    -0.08779
           CZ6              0.05301    -0.06766    -0.00000    -0.00771    -0.03889
           HX7             -0.01238    -0.03185     0.05392     0.08374    -0.17619
           HY7             -0.00407     0.13783     0.01451    -0.10221    -0.16132
           HZ7              0.03091    -0.03569     0.02814    -0.06013    -0.01190
           HX8             -0.00182    -0.02235     0.01067     0.27497    -0.10101
           HY8             -0.02182     0.17126     0.00000    -0.00634    -0.11485
           HZ8              0.08487    -0.09643     0.00000    -0.00596    -0.01003
           HX9             -0.01238    -0.03185     0.05391     0.08378    -0.17618
           HY9              0.01178     0.15835    -0.01451     0.09241    -0.02187
           HZ9              0.02524    -0.05461    -0.02814     0.04197    -0.11103

                                  6
 Wavenumbers [cm-1]            0.00
 Intensities [km/mol]          0.00
 Intensities [relative]        0.00
           CX1             -0.00000
           CY1             -0.02199
           CZ1              0.06978
           OX2             -0.07701
           OY2             -0.02231
           OZ2              0.12559
           OX3              0.01235
           OY3              0.02799
           OZ3              0.03378
           OX4              0.08735
           OY4             -0.07303
           OZ4              0.03431
           HX5              0.07640
           HY5             -0.10838
           HZ5              0.06137
           CX6             -0.07503
           CY6              0.08730
           CZ6              0.06479
           HX7             -0.11891
           HY7              0.03457
           HZ7              0.12506
           HX8             -0.04975
           HY8              0.12210
           HZ8              0.02768
           HX9             -0.11890
           HY9              0.14987
           HZ9              0.06260


 Frequencies dumped to record   5400.2

 Zero point energy:  0.07308798 [H]    16040.96 [1/CM]      191.89 [KJ/MOL]
 Frequency information read from record  5400.2


 **********************************************************************************************************************************
 DATASETS  * FILE   NREC   LENGTH (MB)   RECORD NAMES
              1      18       29.18       500      610      700      900      950      970     1000      129      960     1100   
                                          VAR    BASINP    GEOM    SYMINP    ZMAT    AOBASIS   BASIS     P2S    ABASIS      S 
                                         1400     1410     1200     1210     1080     1600     1650     1700   
                                           T        V       H0       H01     AOSYM     SMH    MOLCAS    OPER   

              2       7        0.87       700     1000      520     2100     5300     5450     5400   
                                         GEOM     BASIS   MCVARS     RHF     HESS     NMOD     FREQ   

              4       5        5.49      4100     4000     4200     4300     4400   

 PROGRAMS   *        TOTAL      FREQ      OPTG    HF-SCF       INT
 CPU TIMES  *      1395.00    429.35    922.71     39.84      2.76
 REAL TIME  *       691.61 SEC
 DISK USED  *        30.82 MB (local),      591.54 MB (total)
 SF USED    *         5.49 MB
 GA USED    *         0.00 MB       (max)       0.00 MB       (current)
 **********************************************************************************************************************************

 Dump information in style MOLDEN to came.molden                                                                     

 Molecular orbitals read from record     2100.2  Type=RHF/CANONICAL  
 Occupation numbers read from record     2100.2  Type=RHF/RHF  
 Orbital energies read from record       2100.2  Type=RHF/CANONICAL  
 Redundancy group numbers read from rec  2100.2  Type=RHF/RHF  

 DUMP ORBITAL  1.1 AS ORBITAL    1  occ=    2.0000  eig=  -20.6109  GROUP=   2
 DUMP ORBITAL  2.1 AS ORBITAL    2  occ=    2.0000  eig=  -20.6089  GROUP=   2
 DUMP ORBITAL  3.1 AS ORBITAL    3  occ=    2.0000  eig=  -20.5380  GROUP=   2
 DUMP ORBITAL  4.1 AS ORBITAL    4  occ=    2.0000  eig=  -11.4293  GROUP=   2
 DUMP ORBITAL  5.1 AS ORBITAL    5  occ=    2.0000  eig=  -11.2918  GROUP=   2
 DUMP ORBITAL  6.1 AS ORBITAL    6  occ=    2.0000  eig=   -1.5312  GROUP=   2
 DUMP ORBITAL  7.1 AS ORBITAL    7  occ=    2.0000  eig=   -1.4192  GROUP=   2
 DUMP ORBITAL  8.1 AS ORBITAL    8  occ=    2.0000  eig=   -1.3792  GROUP=   2
 DUMP ORBITAL  9.1 AS ORBITAL    9  occ=    2.0000  eig=   -1.0026  GROUP=   2
 DUMP ORBITAL 10.1 AS ORBITAL   10  occ=    2.0000  eig=   -0.8437  GROUP=   2
 DUMP ORBITAL 11.1 AS ORBITAL   11  occ=    2.0000  eig=   -0.7636  GROUP=   2
 DUMP ORBITAL 12.1 AS ORBITAL   12  occ=    2.0000  eig=   -0.7180  GROUP=   2
 DUMP ORBITAL 13.1 AS ORBITAL   13  occ=    2.0000  eig=   -0.7114  GROUP=   2
 DUMP ORBITAL 14.1 AS ORBITAL   14  occ=    2.0000  eig=   -0.6348  GROUP=   2
 DUMP ORBITAL 15.1 AS ORBITAL   15  occ=    2.0000  eig=   -0.6193  GROUP=   2
 DUMP ORBITAL 16.1 AS ORBITAL   16  occ=    2.0000  eig=   -0.6156  GROUP=   2
 DUMP ORBITAL 17.1 AS ORBITAL   17  occ=    2.0000  eig=   -0.5430  GROUP=   2
 DUMP ORBITAL 18.1 AS ORBITAL   18  occ=    2.0000  eig=   -0.5087  GROUP=   2
 DUMP ORBITAL 19.1 AS ORBITAL   19  occ=    2.0000  eig=   -0.4756  GROUP=   2
 DUMP ORBITAL 20.1 AS ORBITAL   20  occ=    2.0000  eig=   -0.4741  GROUP=   2

 Total charge:      40.000000
 Frequency information read from record  5400.2

 **********************************************************************************************************************************

 HF/6-311G(D,P)//HF/6-311G(D,P) energy=   -302.761915416766

    OPTG(HF-SCF)          HF-SCF
   -302.76191542   -301.81070811
 **********************************************************************************************************************************
 Molpro calculation terminated
