[Molden Format]
[Molpro variables]
_NUMVAR=  1131.000000000000    
_AVOGAD= 0.6022140760000000E+24
_BOLTZ= 0.1380649000000000E-22
_CLIGHTSI=  299792458.0000000    
_JOULE= 0.4359744722207100E-17
_JPCAL=  4.184000000000000    
_PLANCK= 0.6626070150000000E-33
_BOHR= 0.5291772109030000E-10
_ECHARG= 0.1602176634000000E-18
_ENULL= 0.8854187812800001E-11
_MU= 0.1660539066600000E-26
_EMASS= 0.9109383701500001E-30
_AMU2AU=  1822.888486217313    
_CLIGHT=  29979245800.00000    
_EV= 0.3674932217565494E-01
_KJOULE= 0.3808798847133432E-03
_KJOULE/MOL= 0.3808798847133432E-03
_CM= 0.4556335252912009E-05
_CM-1= 0.4556335252912009E-05
_DEB2SI= 0.3335640951981520E-29
_KCAL= 0.1593601437640628E-02
_KCAL/MOL= 0.1593601437640628E-02
_KELVIN= 0.3166811563455608E-05
_HERTZ= 0.1519829846057038E-15
_HZ= 0.1519829846057038E-15
_TOA= 0.5291772109030000    
_TOANG= 0.5291772109030000    
_TORAD= 0.1745329251994330E-01
_TOCM=  219474.6313631965    
_TODEBYE=  2.541746473194078    
_TOE= 0.4803204712570263E-09
_TOEV=  27.21138624598803    
_TOHERTZ=  6579683920501656.    
_TOHZ=  6579683920501656.    
_TOK=  315775.0248040668    
_TOKCAL=  627.5094740630558    
_TOKELVIN=  315775.0248040668    
_TOKJ=  2625.499639479825    
_TOKJOULE=  2625.499639479825    
_TOKG= 0.1660539066600000E-26
_ANG=  1.889726124625770    
_ANGSTROM=  1.889726124625770    
_RPAREF=  0.000000000000000    
_RPADISS=  0.000000000000000    
_IGNORE_UNDEF=  2.000000000000000    
_STRICTCHECK=  0.000000000000000    
!SEWARD=  0.000000000000000    
!MULTI=  0.000000000000000    
!DFMULTI=  0.000000000000000    
_SEW_ONEEL=  0.000000000000000    
_CPPDONE=FALSE
_DKROLL_DONE=  0.000000000000000    
_FNUC_DONE=  0.000000000000000    
_FOCKDONE=TRUE
_GRADONE=FALSE
_HESSDONE=TRUE
_INTDONE=TRUE
_SCFDONE=TRUE
_MODUL_BLOCK=FALSE
_MODUL_SLATER=FALSE
_MODUL_MRCC=FALSE
_MODUL_NBO6=FALSE
_MODUL_NECI=FALSE
_MODUL_AIMS=TRUE
_MODUL_HDF5=FALSE
_MODUL_GECCO=FALSE
_ISWINDOWS=FALSE
_MRCC_EXEC=
_FITC_AO_SAVED=FALSE
_FITC_MO_SAVED=FALSE
_SHARED_FS=TRUE
_LSTYP=SEWARD
_INTYP=INTS
_GEOMTYP=ZMAT
_GRADTYP=ALASKA
_DIRECT=FALSE
_DKHO= -1.000000000000000    
_FNUC=  0.000000000000000    
_SYNCM=  0.000000000000000    
_BASIS=6-311G(D,P)
_ZCENTRE=MASS
_ZORIENT=  1.000000000000000    
_NELEC=  48.00000000000000    
!SPIN=  0.000000000000000    
_OPTCONV= 0.7683353327380864E-03
_QSDSTEP=  0.000000000000000    
_QSDIRC=  0.000000000000000    
_PROGRAM=FREQ
_CPUSTEP=  5596.670000000000    
_SYSSTEP=  41.49000000000000    
_WALLSTEP=  1478.610000000000    
!DFSCF=  0.000000000000000    
!SCSGRD=  0.000000000000000    
_NCEN=  18.00000000000000    
_CPUTOT=  7811.440000000001    
_DFTEXFAC=  1.000000000000000    
_DMX=-0.1323446674838624E-06
_DMY=-0.2512061949422459E-07
_DMZ= 0.6214383798673661E-06
_DMX_SCF=-0.1323446674838624E-06
_DMY_SCF=-0.2512061949422459E-07
_DMZ_SCF= 0.6214383798673661E-06
_FREQUENCIES= 0.1910942377256125E-04
_HOMO=  24.10000000000000    
_EHOMO=-0.4250689041777944    
_LUMO=  25.10000000000000    
_ELUMO= 0.1556186235247437    
_ENERGY= -234.2635768205508    
_ENERGY_METHOD=HF
_ENERGY_BASIS=6-311G(D,P)
_GEOMETRY_METHOD=HF
_GEOMETRY_BASIS=6-311G(D,P)
_ENUC=  256.2326122828925    
_GRADENERG= -234.2635767460003    
_GRADEXFAC=  9999.000000000000    
_GRADMETHOD=  1.000000000000000    
_NMRMETHOD=  0.000000000000000    
_NMRMAGNET=  0.000000000000000    
_VIRIAL=-0.6893523286922331E-03
!GRID_FREEZE= -1.000000000000000    
!NEESE_INDEX=  0.000000000000000    
_ITERATIONS=  10.00000000000000    
_LASTNELEC=  48.00000000000000    
_LASTSPIN=  0.000000000000000    
_LASTSYM=  1.000000000000000    
_MPP_PROG=  1.000000000000000    
_MSNSTATES=  0.000000000000000    
_RS2PHASE=  0.000000000000000    
_IPROC_MPP=  0.000000000000000    
_IPROC_MPPX=  0.000000000000000    
_NPROC_MPP=  4.000000000000000    
_NPROC_MPPX=  4.000000000000000    
_NPROC_SMP=  8.000000000000000    
_NUMSTEP=  0.000000000000000    
_OPTCONVMX= 0.2326290939453649E-03
_OPTCONVRMS= 0.1810983746681266E-03
_OPTGRAD= 0.2545159319881345E-03
_OPTGRADMX= 0.8849408652444879E-04
_OPTGRADRMS= 0.3463523137665758E-04
_OPTSTEP=  4.000000000000000    
_ORBITAL=  2100.200000000000    
_PI=  3.141592653589793    
_SEIG_MIN= 0.1411642971809300E-02
_SEWPROP=TRUE
_STATUS=  1.000000000000000    
_SYSTOT=  59.71000000000000    
_VERSION=  2022003.000000000    
_WALLTOT=  2103.400000000000    
_ZPE= 0.1802031746446355    
_DATE=06-Aug-25
_LASTORB=0
_OUTPUT=/home/zwa/Overlap_Integral_Project/overlap_integral_gaussian/molpro_files/cyclohexane/cyclochair.out
_PGROUP=C1
_TIME=15:50:24
_LIBMOL=/usr/local/molpro/molpro_2022.3.0_sockets/lib/
_VIGRDC=  0.000000000000000    
!VIBCNT=  0.000000000000000    
!RGHFCNT=  0.000000000000000    
!SURFREC=  0.000000000000000    
!XSURFREC=  0.000000000000000    
!XPOLYREC=  0.000000000000000    
!ROTREC=  0.000000000000000    
!POLYREC=  0.000000000000000    
!DIPREC=  0.000000000000000    
!DIP4DREC=  0.000000000000000    
!DIPROT=  0.000000000000000    
!DIP4DROT=  0.000000000000000    
!PTREC=  0.000000000000000    
!PT4DREC=  0.000000000000000    
!VSCFREC=  0.000000000000000    
!VCIREC=  0.000000000000000    
!PVCIREC=  0.000000000000000    
!VMP2REC=  0.000000000000000    
!VMCSCFREC=  0.000000000000000    
!VMRCIREC=  0.000000000000000    
!VIBSTATEREC=  0.000000000000000    
!VIBSTATECNT=  0.000000000000000    
!VIBINFO=  0.000000000000000    
!GAREC=  0.000000000000000    
!SCFORB=  21002.00000000000    
!DEFCORE=  6.000000000000000    
!SCORE=  0.000000000000000    
!NEWMOL=  0.000000000000000    
!NEWSYM=  0.000000000000000    
_SLFILES=slscratch
_NGSSTO=  9.000000000000000    
_SIN=SIN
_COS=COS
_TAN=TAN
_ACOS=ACOS
_ASIN=ASIN
_ATAN=ATAN
_COSH=COSH
_SINH=SINH
_TANH=TANH
_ABS=ABS
_MOD=MOD
_ERF=ERF
_REFC=REFC
_ERFC=ERFC
_HYPOT=HYPOT
_J0=J0
_J1=J1
_JN=JN
_GAMMA=GAMMA
_LGAMMA=LGAMMA
_Y0=Y0
_Y1=Y1
_YN=YN
_EXP=EXP
_LOG=LOG
_LOG10=LOG10
_SQRT=SQRT
_INT=INT
_NINT=NINT
_MAX=MAX
_MIN=MIN
_COSMO=  0.000000000000000    
_COSMOIT=  0.000000000000000    
_COSMOES=  0.000000000000000    
_COSMOEDS=  0.000000000000000    
_COSMOEC=  0.000000000000000    
_COSMOEDCORR=  0.000000000000000    
_FEPSI=  1.000000000000000    
_SL_IsMM=  0.000000000000000    
_SL_NSYM=  1.000000000000000    
_SL_System_BitSw=  0.000000000000000    
_SL_Unique_atoms=  0.000000000000000    
_SL_GRAD=  0.000000000000000    
_SL_MAXUPD_Hess=  5.000000000000000    
_SL_N_PRINT_COD=  5.000000000000000    
_SL_PRINT_CODES=  0.000000000000000    
_SL_BasType=  0.000000000000000    
_SL_Energy_Pred=  0.000000000000000    
_SL_New_Coords=  0.000000000000000    
_SL_Total_Nuclea=  0.000000000000000    
_SL_Highest_Mltp=  0.000000000000000    
_SL_Ref_Geom=  0.000000000000000    
_SL_Symmetry_ope=  1.000000000000000    
_SL_agrad=  0.000000000000000    
_SL_GrdMax=  0.000000000000000    
_SL_GrdNorm=  0.000000000000000    
_SL_GrdRMS=  0.000000000000000    
_SL_Hss_Q=  0.000000000000000    
_SL_Hss_X=  0.000000000000000    
_SL_BMxOld=  0.000000000000000    
_SL_KtB=  0.000000000000000    
_SL_TROld=  0.000000000000000    
_SL_No_of_Intern=  0.000000000000000    
_SL_Hess=  0.000000000000000    
_SL_K=  0.000000000000000    
!LATTICE= -1.000000000000000    
!NEWLATTICE=  0.000000000000000    
!LATGRAD_VAR=FALSE
!SEW_LATTICE=  1.000000000000000    
!AIC_ONEEL=  0.000000000000000    
!LOCAL=  0.000000000000000    
!SAVEDOM= -1.000000000000000    
!RESTDOM= -1.000000000000000    
!SAVEDOM_HF= -1.000000000000000    
!RESTDOM_HF= -1.000000000000000    
!HESSREC=  5300.200000000000    
!FREQREC=  5400.200000000000    
!NMODREC=  5450.200000000000    
!GTASKS=  0.000000000000000    
!HTASKS=  0.000000000000000    
!SAVEDOM_EOM= -1.000000000000000    
!RESTDOM_EOM= -1.000000000000000    
!GRADSTATE= -1.000000000000000    
!DEBUG=  0.000000000000000    
!CFIT_CPHF=  0.000000000000000    
!RDOMAUX_CPHF=  0.000000000000000    
!THRAO_CPHF= 0.1000000000000000E-11
!THRMO_CPHF= 0.1000000000000000E-11
!THROV_CPHF= 0.1000000000000000E-11
!THRSW_CPHF= 0.1000000000000000E-11
!THRPROD_CPHF= 0.1000000000000000E-11
!THRAOPR_CPHF= 0.1000000000000000E-11
!CFIT_SCFGRD=  0.000000000000000    
!RDOMAUX_SCFGRD=  0.000000000000000    
!THRAO_SCFGRD= 0.1000000000000000E-11
!THRMO_SCFGRD= 0.1000000000000000E-11
!THROV_SCFGRD= 0.1000000000000000E-11
!THRSW_SCFGRD= 0.1000000000000000E-11
!THRPROD_SCFGRD= 0.1000000000000000E-11
!THRAOPR_SCFGRD= 0.1000000000000000E-11
!LOCFIT_SCF=  0.000000000000000    
!LOCFIT_MP2=  0.000000000000000    
_RIDOM=  0.000000000000000    
!CC2_METHOD=  0.000000000000000    
_BASIS2006=FALSE
_SVDDEL= -1.000000000000000    
_SVDDELA= -1.000000000000000    
_SVDDELP= -1.000000000000000    
_SVDDELF= -1.000000000000000    
_SVDDELS= -1.000000000000000    
_SVDDEL_ABS= -1.000000000000000    
_SVDDELA_ABS= -1.000000000000000    
_SVDDELP_ABS= -1.000000000000000    
_SVDDELF_ABS= -1.000000000000000    
_SVDDELS_ABS= -1.000000000000000    
_MAXBASIS=  0.000000000000000    
!OPT_CONICAL=  0.000000000000000    
!CLEARSP_JGRID=  0.000000000000000    
_GRDHYBR=  0.000000000000000    
_STATEGRAD=  1.000000000000000    
_4EXT_NDISKS=  1.000000000000000    
!EMBEDFLAG=  1.000000000000000    
!EMBED=FALSE
!EMBED_F12=FALSE
!EMBEDNUC=  0.000000000000000    
_EMBEDENERGY=  0.000000000000000    
!EMBED_DFC=FALSE
!NUM_VOIDS=  0.000000000000000    
_IBODY=  0.000000000000000    
_EMBE_CORR=  0.000000000000000    
!EMBED_PROJ=FALSE
!EMB_PROJ_ZMU=  1000000.000000000    
!CORRECTION_HF=  0.000000000000000    
!EMBED_AORB=  0.000000000000000    
!EMBED_NACORR=  0.000000000000000    
!EMBED_MP2=FALSE
!EMBED_TRUNC_PERTURBATION=FALSE
!EMBED_FROZEN=  0.000000000000000    
!EMBED_ACTIVE=  0.000000000000000    
_CHANGE_BASIS=FALSE
_RESTORE_BASIS=FALSE
_FIX_EMBED_GUESS=FALSE
_EMBED_SCF=FALSE
_HUZINAGA_T=FALSE
_HUZINAGA_F=FALSE
_HUZINAGA=FALSE
_HUZINAGA_CORRECT=FALSE
!FASTLATGRAD=  1.000000000000000    
!FASTVLAMBDA= -1.000000000000000    
!IFORCE= -1.000000000000000    
!USESYM= -1.000000000000000    
_SINDEX=  0.000000000000000    
_AVDOM_OSV=  0.000000000000000    
_AVDOM_PNO=  0.000000000000000    
_AVDOM_PAO=  0.000000000000000    
_AVDOM_LMO=  0.000000000000000    
_CC2OSV_FLAG=  0.000000000000000    
_EOMCCSD_CONV=FALSE
_TMADC2_FLAG=FALSE
_PROPADC2_FLAG=FALSE
_LEN_VirQ=  0.000000000000000    
_GRDCC2LR_FLAG=FALSE
_GRDADC2_FLAG=FALSE
_RO_VGLOBAL=  0.000000000000000    
_OPT=FALSE
_FREQ=FALSE
_HESS=FALSE
_CMRCC_callName=EMPTY
_CMRCC_callCount=  0.000000000000000    
_GECCO_CIROOT=  1.000000000000000    
_SYM_CATION=  1.000000000000000    
_MON_A=FALSE
_MON_B=FALSE
GX1=-0.9237788755748734    
GY1=-0.2283602583041642    
GZ1= -1.132791987100926    
GX2= -1.442910682188464    
GY2= 0.2283670678323661    
GZ2= 0.2336210976832641    
GX3=-0.5191360328920041    
GY3=-0.2283718326613451    
GZ3=  1.366409045040323    
GX4= 0.9237739535885086    
GY4= 0.2283698241635219    
GZ4=  1.132791608465972    
GX5=  1.442912993030461    
GY5=-0.2283628702716603    
GZ5=-0.2336164617810682    
GX6= 0.5191387301409942    
GY6= 0.2283581557041827    
GZ6= -1.366413635719967    
GX7=-0.8812790740995834    
GY7= 0.1485877891286655    
GZ7=  2.319586445252368    
GX8= -1.512420603187969    
GY8=  1.315965740008087    
GZ8= 0.2448871551253771    
GX9= -2.449457691968590    
GY9=-0.1485950308536384    
GZ9= 0.3965805457990684    
GX10=-0.9682949820773280    
GY10= -1.315958073556433    
GZ10= -1.187367027688464    
GX11= -1.568183636976235    
GY11= 0.1486141888571373    
GZ11= -1.922997783836851    
GX12= 0.9682685321908283    
GY12=  1.315968292317093    
GZ12=  1.187369522534889    
GX13=  1.568187593263293    
GY13=-0.1485923127502865    
GZ13=  1.922996505330077    
GX14=  2.449456011565032    
GY14= 0.1486044440714847    
GZ14=-0.3965874680543919    
GX15=  1.512430921683332    
GY15= -1.315961280400818    
GZ15=-0.2448605433593906    
GX16= 0.5441545490298791    
GY16=  1.315955711057962    
GZ16= -1.432253337336415    
GX17= 0.8812777744116764    
GY17=-0.1486201027139637    
GZ17= -2.319584624425228    
GX18=-0.5441404190673476    
GY18= -1.315970394664272    
GZ18=  1.432234580543436    
CX1= -1.745689074551257    
CY1=-0.4315383459436681    
CZ1= -2.140666611791358    
CX2= -2.726706011633132    
CY2= 0.4315512140870075    
CZ2= 0.4414798915558132    
CX3=-0.9810249235906031    
CY3=-0.4315602183088086    
CZ3=  2.582138869337649    
CX4=  1.745679773345038    
CY4= 0.4315564227980009    
CZ4=  2.140665896274994    
CX5=  2.726710378491623    
CY5=-0.4315432818468821    
CZ5=-0.4414711309703223    
CX6= 0.9810300206524845    
CY6= 0.4315343726055533    
CZ6= -2.582147544464902    
HX7= -1.665376089411993    
HY7= 0.2807902269168243    
HZ7=  4.383383103921223    
HX8= -2.858060725266571    
HY8=  2.486814838005766    
HZ8= 0.4627696546257086    
HX9= -4.628804191678586    
HY9=-0.2808039117936928    
HZ9= 0.7494286179148464    
HX10= -1.829812323975569    
HY10= -2.486800350511792    
HZ10= -2.243798491742140    
HX11= -2.963437587004647    
HY11= 0.2808401151734003    
HZ11= -3.633939149713958    
HX12=  1.829762340934057    
HY12=  2.486819661170772    
HZ12=  2.243803206318607    
HX13=  2.963445063303656    
HY13=-0.2807987753227793    
HZ13=  3.633936733686305    
HX14=  4.628801016176083    
HY14= 0.2808217001973738    
HZ14=-0.7494416990815724    
HX15=  2.858080224396825    
HY15= -2.486806410569404    
HZ15=-0.4627193656763015    
HX16=  1.028303067135717    
HY16=  2.486795886036712    
HZ16= -2.706566548647070    
HX17=  1.665373633357801    
HY17=-0.2808512907431425    
HZ17= -4.383379663056609    
HX18= -1.028276365376381    
HY18= -2.486823634031160    
HZ18=  2.706531103445364    
[Atoms] Angs
C     1    6        -0.9237788756       -0.2283602583       -1.1327919871
C     2    6        -1.4429106822        0.2283670678        0.2336210977
C     3    6        -0.5191360329       -0.2283718327        1.3664090450
C     4    6         0.9237739536        0.2283698242        1.1327916085
C     5    6         1.4429129930       -0.2283628703       -0.2336164618
C     6    6         0.5191387301        0.2283581557       -1.3664136357
H     7    1        -0.8812790741        0.1485877891        2.3195864453
H     8    1        -1.5124206032        1.3159657400        0.2448871551
H     9    1        -2.4494576920       -0.1485950309        0.3965805458
H    10    1        -0.9682949821       -1.3159580736       -1.1873670277
H    11    1        -1.5681836370        0.1486141889       -1.9229977838
H    12    1         0.9682685322        1.3159682923        1.1873695225
H    13    1         1.5681875933       -0.1485923128        1.9229965053
H    14    1         2.4494560116        0.1486044441       -0.3965874681
H    15    1         1.5124309217       -1.3159612804       -0.2448605434
H    16    1         0.5441545490        1.3159557111       -1.4322533373
H    17    1         0.8812777744       -0.1486201027       -2.3195846244
H    18    1        -0.5441404191       -1.3159703947        1.4322345805
[GTO]
   1 0
 s    6  1.00
  0.4563240000D+04  0.1966650249D-02
  0.6820240000D+03  0.1523060193D-01
  0.1549730000D+03  0.7612690966D-01
  0.4445530000D+02  0.2608010331D+00
  0.1302900000D+02  0.6164620782D+00
  0.1827730000D+01  0.2210060280D+00
 s    3  1.00
  0.2096420000D+02  0.1146600807D+00
  0.4803310000D+01  0.9199996477D+00
  0.1459330000D+01 -0.3030682134D-02
 s    1  1.00
  0.4834560000D+00  0.1000000000D+01
 s    1  1.00
  0.1455850000D+00  0.1000000000D+01
 p    3  1.00
  0.2096420000D+02  0.4024869267D-01
  0.4803310000D+01  0.2375939567D+00
  0.1459330000D+01  0.8158538515D+00
 p    1  1.00
  0.4834560000D+00  0.1000000000D+01
 p    1  1.00
  0.1455850000D+00  0.1000000000D+01
 d    1  1.00
  0.6260000000D+00  0.1000000000D+01
  
   2 0
 s    6  1.00
  0.4563240000D+04  0.1966650249D-02
  0.6820240000D+03  0.1523060193D-01
  0.1549730000D+03  0.7612690966D-01
  0.4445530000D+02  0.2608010331D+00
  0.1302900000D+02  0.6164620782D+00
  0.1827730000D+01  0.2210060280D+00
 s    3  1.00
  0.2096420000D+02  0.1146600807D+00
  0.4803310000D+01  0.9199996477D+00
  0.1459330000D+01 -0.3030682134D-02
 s    1  1.00
  0.4834560000D+00  0.1000000000D+01
 s    1  1.00
  0.1455850000D+00  0.1000000000D+01
 p    3  1.00
  0.2096420000D+02  0.4024869267D-01
  0.4803310000D+01  0.2375939567D+00
  0.1459330000D+01  0.8158538515D+00
 p    1  1.00
  0.4834560000D+00  0.1000000000D+01
 p    1  1.00
  0.1455850000D+00  0.1000000000D+01
 d    1  1.00
  0.6260000000D+00  0.1000000000D+01
  
   3 0
 s    6  1.00
  0.4563240000D+04  0.1966650249D-02
  0.6820240000D+03  0.1523060193D-01
  0.1549730000D+03  0.7612690966D-01
  0.4445530000D+02  0.2608010331D+00
  0.1302900000D+02  0.6164620782D+00
  0.1827730000D+01  0.2210060280D+00
 s    3  1.00
  0.2096420000D+02  0.1146600807D+00
  0.4803310000D+01  0.9199996477D+00
  0.1459330000D+01 -0.3030682134D-02
 s    1  1.00
  0.4834560000D+00  0.1000000000D+01
 s    1  1.00
  0.1455850000D+00  0.1000000000D+01
 p    3  1.00
  0.2096420000D+02  0.4024869267D-01
  0.4803310000D+01  0.2375939567D+00
  0.1459330000D+01  0.8158538515D+00
 p    1  1.00
  0.4834560000D+00  0.1000000000D+01
 p    1  1.00
  0.1455850000D+00  0.1000000000D+01
 d    1  1.00
  0.6260000000D+00  0.1000000000D+01
  
   4 0
 s    6  1.00
  0.4563240000D+04  0.1966650249D-02
  0.6820240000D+03  0.1523060193D-01
  0.1549730000D+03  0.7612690966D-01
  0.4445530000D+02  0.2608010331D+00
  0.1302900000D+02  0.6164620782D+00
  0.1827730000D+01  0.2210060280D+00
 s    3  1.00
  0.2096420000D+02  0.1146600807D+00
  0.4803310000D+01  0.9199996477D+00
  0.1459330000D+01 -0.3030682134D-02
 s    1  1.00
  0.4834560000D+00  0.1000000000D+01
 s    1  1.00
  0.1455850000D+00  0.1000000000D+01
 p    3  1.00
  0.2096420000D+02  0.4024869267D-01
  0.4803310000D+01  0.2375939567D+00
  0.1459330000D+01  0.8158538515D+00
 p    1  1.00
  0.4834560000D+00  0.1000000000D+01
 p    1  1.00
  0.1455850000D+00  0.1000000000D+01
 d    1  1.00
  0.6260000000D+00  0.1000000000D+01
  
   5 0
 s    6  1.00
  0.4563240000D+04  0.1966650249D-02
  0.6820240000D+03  0.1523060193D-01
  0.1549730000D+03  0.7612690966D-01
  0.4445530000D+02  0.2608010331D+00
  0.1302900000D+02  0.6164620782D+00
  0.1827730000D+01  0.2210060280D+00
 s    3  1.00
  0.2096420000D+02  0.1146600807D+00
  0.4803310000D+01  0.9199996477D+00
  0.1459330000D+01 -0.3030682134D-02
 s    1  1.00
  0.4834560000D+00  0.1000000000D+01
 s    1  1.00
  0.1455850000D+00  0.1000000000D+01
 p    3  1.00
  0.2096420000D+02  0.4024869267D-01
  0.4803310000D+01  0.2375939567D+00
  0.1459330000D+01  0.8158538515D+00
 p    1  1.00
  0.4834560000D+00  0.1000000000D+01
 p    1  1.00
  0.1455850000D+00  0.1000000000D+01
 d    1  1.00
  0.6260000000D+00  0.1000000000D+01
  
   6 0
 s    6  1.00
  0.4563240000D+04  0.1966650249D-02
  0.6820240000D+03  0.1523060193D-01
  0.1549730000D+03  0.7612690966D-01
  0.4445530000D+02  0.2608010331D+00
  0.1302900000D+02  0.6164620782D+00
  0.1827730000D+01  0.2210060280D+00
 s    3  1.00
  0.2096420000D+02  0.1146600807D+00
  0.4803310000D+01  0.9199996477D+00
  0.1459330000D+01 -0.3030682134D-02
 s    1  1.00
  0.4834560000D+00  0.1000000000D+01
 s    1  1.00
  0.1455850000D+00  0.1000000000D+01
 p    3  1.00
  0.2096420000D+02  0.4024869267D-01
  0.4803310000D+01  0.2375939567D+00
  0.1459330000D+01  0.8158538515D+00
 p    1  1.00
  0.4834560000D+00  0.1000000000D+01
 p    1  1.00
  0.1455850000D+00  0.1000000000D+01
 d    1  1.00
  0.6260000000D+00  0.1000000000D+01
  
   7 0
 s    3  1.00
  0.3386500000D+02  0.2549381454D-01
  0.5094790000D+01  0.1903731086D+00
  0.1158790000D+01  0.8521614860D+00
 s    1  1.00
  0.3258400000D+00  0.1000000000D+01
 s    1  1.00
  0.1027410000D+00  0.1000000000D+01
 p    1  1.00
  0.7500000000D+00  0.1000000000D+01
  
   8 0
 s    3  1.00
  0.3386500000D+02  0.2549381454D-01
  0.5094790000D+01  0.1903731086D+00
  0.1158790000D+01  0.8521614860D+00
 s    1  1.00
  0.3258400000D+00  0.1000000000D+01
 s    1  1.00
  0.1027410000D+00  0.1000000000D+01
 p    1  1.00
  0.7500000000D+00  0.1000000000D+01
  
   9 0
 s    3  1.00
  0.3386500000D+02  0.2549381454D-01
  0.5094790000D+01  0.1903731086D+00
  0.1158790000D+01  0.8521614860D+00
 s    1  1.00
  0.3258400000D+00  0.1000000000D+01
 s    1  1.00
  0.1027410000D+00  0.1000000000D+01
 p    1  1.00
  0.7500000000D+00  0.1000000000D+01
  
  10 0
 s    3  1.00
  0.3386500000D+02  0.2549381454D-01
  0.5094790000D+01  0.1903731086D+00
  0.1158790000D+01  0.8521614860D+00
 s    1  1.00
  0.3258400000D+00  0.1000000000D+01
 s    1  1.00
  0.1027410000D+00  0.1000000000D+01
 p    1  1.00
  0.7500000000D+00  0.1000000000D+01
  
  11 0
 s    3  1.00
  0.3386500000D+02  0.2549381454D-01
  0.5094790000D+01  0.1903731086D+00
  0.1158790000D+01  0.8521614860D+00
 s    1  1.00
  0.3258400000D+00  0.1000000000D+01
 s    1  1.00
  0.1027410000D+00  0.1000000000D+01
 p    1  1.00
  0.7500000000D+00  0.1000000000D+01
  
  12 0
 s    3  1.00
  0.3386500000D+02  0.2549381454D-01
  0.5094790000D+01  0.1903731086D+00
  0.1158790000D+01  0.8521614860D+00
 s    1  1.00
  0.3258400000D+00  0.1000000000D+01
 s    1  1.00
  0.1027410000D+00  0.1000000000D+01
 p    1  1.00
  0.7500000000D+00  0.1000000000D+01
  
  13 0
 s    3  1.00
  0.3386500000D+02  0.2549381454D-01
  0.5094790000D+01  0.1903731086D+00
  0.1158790000D+01  0.8521614860D+00
 s    1  1.00
  0.3258400000D+00  0.1000000000D+01
 s    1  1.00
  0.1027410000D+00  0.1000000000D+01
 p    1  1.00
  0.7500000000D+00  0.1000000000D+01
  
  14 0
 s    3  1.00
  0.3386500000D+02  0.2549381454D-01
  0.5094790000D+01  0.1903731086D+00
  0.1158790000D+01  0.8521614860D+00
 s    1  1.00
  0.3258400000D+00  0.1000000000D+01
 s    1  1.00
  0.1027410000D+00  0.1000000000D+01
 p    1  1.00
  0.7500000000D+00  0.1000000000D+01
  
  15 0
 s    3  1.00
  0.3386500000D+02  0.2549381454D-01
  0.5094790000D+01  0.1903731086D+00
  0.1158790000D+01  0.8521614860D+00
 s    1  1.00
  0.3258400000D+00  0.1000000000D+01
 s    1  1.00
  0.1027410000D+00  0.1000000000D+01
 p    1  1.00
  0.7500000000D+00  0.1000000000D+01
  
  16 0
 s    3  1.00
  0.3386500000D+02  0.2549381454D-01
  0.5094790000D+01  0.1903731086D+00
  0.1158790000D+01  0.8521614860D+00
 s    1  1.00
  0.3258400000D+00  0.1000000000D+01
 s    1  1.00
  0.1027410000D+00  0.1000000000D+01
 p    1  1.00
  0.7500000000D+00  0.1000000000D+01
  
  17 0
 s    3  1.00
  0.3386500000D+02  0.2549381454D-01
  0.5094790000D+01  0.1903731086D+00
  0.1158790000D+01  0.8521614860D+00
 s    1  1.00
  0.3258400000D+00  0.1000000000D+01
 s    1  1.00
  0.1027410000D+00  0.1000000000D+01
 p    1  1.00
  0.7500000000D+00  0.1000000000D+01
  
  18 0
 s    3  1.00
  0.3386500000D+02  0.2549381454D-01
  0.5094790000D+01  0.1903731086D+00
  0.1158790000D+01  0.8521614860D+00
 s    1  1.00
  0.3258400000D+00  0.1000000000D+01
 s    1  1.00
  0.1027410000D+00  0.1000000000D+01
 p    1  1.00
  0.7500000000D+00  0.1000000000D+01


[MO]
 Sym=      1.1
 Ene=     -11.2109
 Spin= Alpha
 Occup=    2.000000
1 0.22995789862860
2 0.19038808197992
3 0.001976403689395
4 -0.000330270322696
5 0.000028775840116
6 0.000027288521824
7 0.000035285134571
8 0.000073291213261
9 0.000067609429615
10 0.000089875196986
11 0.000025411129004
12 -0.000111121945061
13 0.000031166671428
14 0.000016643914351
15 -0.000027683582845
16 0.000011039668493
17 0.000005471243368
18 -0.000015750789111
19 0.000006709015535
20 0.22995846286597
21 0.19038855045311
22 0.001976407615596
23 -0.000330319878834
24 0.000044943966734
25 -0.000027288212671
26 -0.000007279040628
27 0.000114474944877
28 -0.000067608900685
29 -0.000018539661281
30 0.000039680209686
31 0.000111131518218
32 -0.000006424714382
33 0.000000627606643
34 -0.000027682911415
35 0.000027055304772
36 -0.000008545171938
37 0.000005072624385
38 0.000001384534756
39 0.22994769450115
40 0.19037963229215
41 0.001976321880469
42 -0.000330221476830
43 0.000016169987282
44 0.000027290554472
45 -0.000042563048207
46 0.000041186963782
47 0.000067610192858
48 -0.000108408532675
49 0.000014287426810
50 -0.000111134265856
51 -0.000037608643971
52 0.000024255294011
53 -0.000027682714102
54 0.000003427420091
55 0.000003075118402
56 0.000010677870676
57 -0.000008094343002
58 0.22995745285480
59 0.19038771289027
60 0.001976402700529
61 -0.000330276488797
62 -0.000028772230317
63 -0.000027289939697
64 -0.000035287912892
65 -0.000073281189933
66 -0.000067610866229
67 -0.000089883005968
68 -0.000025408005912
69 0.000111130034574
70 -0.000031167687987
71 0.000016639560716
72 -0.000027682789079
73 0.000011043228363
74 0.000005469280610
75 -0.000015752080746
76 0.000006711372031
77 0.22997032538129
78 0.19039837254393
79 0.001976507632614
80 -0.000330354105928
81 -0.000044945700555
82 0.000027287954816
83 0.000007276623475
84 -0.000114480184915
85 0.000067611461871
86 0.000018533772427
87 -0.000039668238354
88 -0.000111120856067
89 0.000006428658049
90 0.000000629648923
91 -0.000027683885797
92 0.000027054236874
93 -0.000008544642952
94 0.000005073769629
95 0.000001383211958
96 0.22996045408553
97 0.19039019729123
98 0.001976426229949
99 -0.000330254882525
100 -0.000016168971230
101 -0.000027288871615
102 0.000042564851499
103 -0.000041182660842
104 -0.000067610962261
105 0.000108414828940
106 -0.000014276109200
107 0.000111116589861
108 0.000037601776683
109 0.000024253266942
110 -0.000027684174334
111 0.000003430907392
112 0.000003073249624
113 0.000010678665960
114 -0.000008093708721
115 0.000137352261281
116 0.000119823966149
117 0.000095464739587
118 0.000011423537191
119 0.000009789733093
120 -0.000030066933701
121 0.000139924024482
122 0.000044528294973
123 0.000065690997265
124 0.000012786585552
125 -0.000024699192264
126 -0.000002070599235
127 0.000137358913661
128 0.000119826892163
129 0.000095462177630
130 0.000031750907666
131 -0.000009789678814
132 -0.000005140650973
133 0.000139924168607
134 0.000044523391132
135 0.000065694471891
136 0.000008185765275
137 0.000024698622740
138 0.000010038093568
139 0.000137358842953
140 0.000119823589191
141 0.000095463847998
142 0.000020327537312
143 0.000009788569861
144 0.000024926115754
145 0.000139923832338
146 0.000044520633179
147 0.000065691481770
148 -0.000008185521230
149 -0.000024698233947
150 -0.000010038451638
151 0.000137358404175
152 0.000119825389033
153 0.000095463422642
154 -0.000020327550306
155 -0.000009789642300
156 -0.000024926584157
157 0.000137366489818
158 0.000119826607971
159 0.000095462049269
160 -0.000031750940666
161 0.000009789158234
162 0.000005140571443
163 0.000139930390434
164 0.000044542317428
165 0.000065698700786
166 -0.000012788229030
167 0.000024701843830
168 0.000002070422642
169 0.000139925810980
170 0.000044523542134
171 0.000065697737780
172 -0.000004600040113
173 -0.000024699021670
174 0.000012108304080
175 0.000137360480540
176 0.000119823055464
177 0.000095465441342
178 -0.000011423432398
179 -0.000009788138631
180 0.000030066871173
181 0.000139918812151
182 0.000044506842341
183 0.000065687016147
184 0.000004599493244
185 0.000024696110499
186 -0.000012106968075
 Sym=      2.1
 Ene=     -11.2106
 Spin= Alpha
 Occup=    2.000000
1 0.20821517349537
2 0.17240212656125
3 0.001781297634972
4 -0.000673612727692
5 -0.000039598011263
6 0.000007425457290
7 0.000061518951924
8 -0.000136613435801
9 0.000051034763999
10 0.000201642053552
11 -0.000298122159822
12 0.000113123398463
13 -0.000021277001955
14 -0.000083693371191
15 -0.000008530367332
16 0.000092223738522
17 -0.000050282297624
18 0.000001185385485
19 0.000030524290403
20 0.32048791574791
21 0.26536393924822
22 0.002741792973906
23 -0.001036855563669
24 0.000031948039946
25 -0.000011428052451
26 -0.000020798151249
27 0.000097981017837
28 -0.000078546448006
29 -0.000068263600686
30 -0.000319041187493
31 -0.000174107647114
32 0.000002779679968
33 0.000027865908626
34 -0.000013128067805
35 -0.000014737840821
36 0.000014405826171
37 -0.000031367070685
38 0.000010753076311
39 0.11226996594467
40 0.092959510861914
41 0.000960486197603
42 -0.000363220791201
43 -0.000075111425069
44 0.000004005073188
45 -0.000041603225233
46 -0.000253058349574
47 0.000027516890184
48 -0.000136482387786
49 -0.000287753295562
50 0.000060990025158
51 0.000008866034605
52 -0.000074966481355
53 -0.000004599467183
54 0.000079565948538
55 -0.000068091347479
56 0.000082933995131
57 -0.000021185479198
58 -0.20820373677479
59 -0.17239265657560
60 -0.001781207257496
61 0.000673595325816
62 -0.000039599211231
63 0.000007425584345
64 0.000061518567665
65 -0.000136618751601
66 0.000051028078877
67 0.000201643157897
68 -0.000298134825392
69 0.000113117621992
70 -0.000021268651253
71 0.000083694167780
72 0.000008528843659
73 -0.000092223011439
74 0.000050283791833
75 -0.000001182551242
76 -0.000030526284615
77 -0.32048480467266
78 -0.26536136463699
79 -0.002741761268212
80 0.001036875064139
81 0.000031946415670
82 -0.000011426325062
83 -0.000020796893852
84 0.000097976153848
85 -0.000078544619528
86 -0.000068260339953
87 -0.000319049679557
88 -0.000174115818775
89 0.000002791635791
90 -0.000027867090773
91 0.000013127135851
92 0.000014739954923
93 -0.000014407076517
94 0.000031368592767
95 -0.000010750779151
96 -0.11226215950626
97 -0.092953047709571
98 -0.000960414916643
99 0.000363186994593
100 -0.000075113524024
101 0.000004003545078
102 -0.000041602206938
103 -0.000253062161933
104 0.000027516438046
105 -0.000136480240533
106 -0.000287743233519
107 0.000061000822703
108 0.000008860810328
109 0.000074968322155
110 0.000004599142055
111 -0.000079567464210
112 0.000068090670735
113 -0.000082934160936
114 0.000021184710705
115 0.000070773224368
116 0.000008061637072
117 -0.000001675023036
118 -0.000004055806197
119 0.000000176537708
120 -0.000003812290246
121 0.000172024736534
122 0.000334102245746
123 0.000175198868843
124 0.000044124276444
125 -0.000061863593282
126 -0.000007669192284
127 0.000202030876802
128 0.000023011759792
129 -0.000004773148079
130 0.000005832660330
131 -0.000000502855905
132 -0.000001889848331
133 0.000111760726575
134 0.000217065620347
135 0.000113823473184