
 Working directory              : /tmp/zwa/molpro.3m7hSfbG21/
 Global scratch directory       : /tmp/zwa/molpro.3m7hSfbG21/
 Wavefunction directory         : /home/zwa/wfu/
 Main file repository           : /tmp/zwa/molpro.3m7hSfbG21/

 id        : liedlgroup

 Nodes     nprocs
 rh2-c724     4
 GA implementation: MPI file
 GA implementation (serial work in mppx): MPI file

 Using customized tuning parameters: mindgm=1; mindgv=20; mindgc=4; mindgr=1; noblas=0; minvec=7
 default implementation of scratch files=sf  


 Variables initialized (1025), CPU time= 0.00 sec
 memory, 2000, m
  orient,mass
  geometry = {
  C ,                -0.75058134 ,  -0.96804003,    0.00000000
  C  ,                0.76452466 ,  -0.96804003  ,  0.00000000
  C ,                 1.31645566  ,  0.44303797  ,  0.00000000
  C ,                 0.76679266  ,  1.24757497 ,   1.16066100
  C ,                -0.74833234  ,  1.24823597  ,  1.16017200
  C ,                -1.30113234  , -0.16238503 ,   1.15887600
  H ,                 2.43505466  ,  0.40904697 ,   0.06271400
  H,                  1.13707366 ,  -1.51367403 ,   0.90656200
  H ,                 1.13981866 ,  -1.51789903 ,  -0.90191000
  H ,                -1.12326934  , -0.53501103 ,  -0.96538500
  H ,                -1.12617834 ,  -2.02226003 ,   0.06350200
  H ,                 1.13932766,    0.81272997 ,   2.12527200
  H ,                 1.14281566 ,   2.30171197  ,  1.09866600
  H ,                -1.12365234 ,   1.79766397  ,  2.06228600
  H  ,               -1.12018734 ,   1.79483697  ,  0.25384900
  H  ,               -1.03512834 ,  -0.66810703  ,  2.12419100
  H  ,               -2.41968034 ,  -0.12732403 ,   1.09393800
  H  ,                1.04783766 ,   0.94867097  , -0.96454600
  }
 
  mass, iso
  basis=6-311g(d,p)
 
  {hf
  start,atden}
 
  optg
  {frequencies, symm=auto, print=0,analytical}
  put,molden,cyclochair.molden
 Commands initialized (840), CPU time= 0.00 sec, 684 directives.
 Default parameters read. Elapsed time= 0.09 sec

 Checking input...
 Passed
1


                                         ***  PROGRAM SYSTEM MOLPRO  ***
                                       Copyright, TTI GmbH Stuttgart, 2015
                                    Version 2022.3 linked Wed Nov 30 12:40:34 2022


 **********************************************************************************************************************************
 LABEL *                                                                                 
  (8 PROC) 64 bit mpp version                                                            DATE: 06-Aug-25          TIME: 15:50:24  
 **********************************************************************************************************************************

 SHA1:             e31ec9a5ea85254ab76f59d122cbdd51c71cf98b
 **********************************************************************************************************************************

 Memory per process:      2000 MW
 Total memory per node:   8000 MW

 GA preallocation disabled
 GA check disabled

 Variable memory set to 2000.0 MW

 ZCENTRE=MASS


 Geometry recognized as XYZ



 Using masses of most abundant isotopes

 **********************************************************************************************************************************
 SETTING BASIS          =    6-311G(D,P)


 Recomputing integrals since basis changed


 Using spherical harmonics

 Library entry C      S 6-311G               selected for orbital group  1
 Library entry C      P 6-311G               selected for orbital group  1
 Library entry C      D 6-311G*              selected for orbital group  1
 Library entry H      S 6-311G               selected for orbital group  2
 Library entry H      P 6-311G**             selected for orbital group  2


 PROGRAM * SEWARD (Integral evaluation for generally contracted gaussian basis sets)     Author: Roland Lindh, 1990

 Geometry written to block  1 of record 700

 Orientation using atomic masses  
 Molecule type: Asymmetric top
 Rotational constants:       4.3634363      2.5063860      4.3680740 GHz

 Point group  C1  



 ATOMIC COORDINATES

 NR  ATOM    CHARGE       X              Y              Z

   1  C       6.00   -1.565463632   -0.431046881   -2.236977886
   2  C       6.00   -2.717836416    0.432423017    0.237694004
   3  C       6.00   -1.154113641   -0.433180467    2.474620789
   4  C       6.00    1.565154444    0.432949976    2.236915887
   5  C       6.00    2.717977775   -0.431863955   -0.237118775
   6  C       6.00    1.154251600    0.430793824   -2.474919272
   7  H       1.00   -1.989453909    0.332828745    4.264020554
   8  H       1.00   -2.854098228    2.547834022    0.250654829
   9  H       1.00   -4.685590905   -0.333148943    0.409032062
  10  H       1.00   -1.646692692   -2.546233771   -2.351599115
  11  H       1.00   -2.697649661    0.337933728   -3.853707456
  12  H       1.00    1.643166753    2.548333277    2.349636135
  13  H       1.00    2.698419286   -0.333313464    3.854131134
  14  H       1.00    4.685351886    0.334379210   -0.408925007
  15  H       1.00    2.855312006   -2.547306782   -0.248051768
  16  H       1.00    1.214370099    2.545865699   -2.603338812
  17  H       1.00    1.988814710   -0.339630424   -4.263028922
  18  H       1.00   -1.211593690   -2.548440423    2.598619429

 Bond lengths in Bohr (Angstrom)

  1- 2  2.863135390   1- 6  2.862906992   1-10  2.119847109   1-11  2.118251846   2- 3  2.863274306
       ( 1.515106000)       ( 1.514985137)       ( 1.121774781)       ( 1.120930604)       ( 1.515179511)

  2- 8  2.119834660   2- 9  2.118375530   3- 4  2.863757057   3- 7  2.118139513   3-18  2.119670800
       ( 1.121768193)       ( 1.120996055)       ( 1.515434972)       ( 1.120871160)       ( 1.121681482)

  4- 5  2.863171716   4-12  2.119820343   4-13  2.118214818   5- 6  2.863069867   5-14  2.118302826
       ( 1.515125223)       ( 1.121760617)       ( 1.120911010)       ( 1.515071327)       ( 1.120957581)

  5-15  2.119924191   6-16  2.119819532   6-17  2.118344926
       ( 1.121815571)       ( 1.121760188)       ( 1.120979860)

 Bond angles

  1-2-3  111.36252447   1-2-8  109.39681635   1-2-9  109.55953690   1-6-5  111.29616323

  1- 6-16  109.41082787   1- 6-17  109.56859847   2- 1- 6  111.30936835   2- 1-10  109.40422483

  2- 1-11  109.57716262   2- 3- 4  111.24127560   2- 3- 7  109.59001104   2- 3-18  109.42519797

  3- 2- 8  109.39081887   3- 2- 9  109.56382442   3- 4- 5  111.26574203   3- 4-12  109.41106707

  3- 4-13  109.58676541   4- 3- 7  109.58601138   4- 3-18  109.41579091   4- 5- 6  111.37443652

  4- 5-14  109.55885178   4- 5-15  109.38713435   5- 4-12  109.42332469   5- 4-13  109.57459197

  5- 6-16  109.42004017   5- 6-17  109.57281087   6- 1-10  109.40740597   6- 1-11  109.57492433

  6- 5-14  109.56488069   6- 5-15  109.39140781   7- 3-18  107.50419709   8- 2- 9  107.48391536

 10- 1-11  107.48634664  12- 4-13  107.49999612  14- 5-15  107.48014164  16- 6-17  107.49170117

 NUCLEAR CHARGE:                   48
 NUMBER OF PRIMITIVE AOS:         288
 NUMBER OF SYMMETRY AOS:          282
 NUMBER OF CONTRACTIONS:          180   (  180A   )
 NUMBER OF INNER CORE ORBITALS:     0   (    0A   )
 NUMBER OF OUTER CORE ORBITALS:     6   (    6A   )
 NUMBER OF VALENCE ORBITALS:       36   (   36A   )


 NUCLEAR REPULSION ENERGY  256.64153835


 Eigenvalues of metric

         1 0.135E-02 0.136E-02 0.224E-02 0.304E-02 0.305E-02 0.111E-01 0.111E-01 0.116E-01


 Contracted 2-electron integrals neglected if value below      1.0D-11
 AO integral compression algorithm  1   Integral accuracy      1.0D-11

     455.344 MB (compressed) written to integral file ( 40.1%)

     Node minimum: 110.363 MB, node maximum: 115.868 MB


 NUMBER OF SORTED TWO-ELECTRON INTEGRALS:   33170512.     BUFFER LENGTH:  32768
 NUMBER OF SEGMENTS:   3  SEGMENT LENGTH:   15989512      RECORD LENGTH: 524288

 Memory used in sort:      16.55 MW

 SORT1 READ   141809805. AND WROTE    28360965. INTEGRALS IN     82 RECORDS. CPU TIME:     2.13 SEC, REAL TIME:     2.42 SEC
 SORT2 READ   113167795. AND WROTE   132690195. INTEGRALS IN   1768 RECORDS. CPU TIME:     0.47 SEC, REAL TIME:     0.66 SEC

 Node minimum:    33166440.  Node maximum:    33178658. integrals

 OPERATOR DM      FOR CENTER  0  COORDINATES:    0.000000    0.000000    0.000000


 **********************************************************************************************************************************
 DATASETS  * FILE   NREC   LENGTH (MB)   RECORD NAMES
              1      18       30.02       500      610      700      900      950      970     1000      129      960     1100   
                                          VAR    BASINP    GEOM    SYMINP    ZMAT    AOBASIS   BASIS     P2S    ABASIS      S 
                                         1400     1410     1200     1210     1080     1600     1650     1700   
                                           T        V       H0       H01     AOSYM     SMH    MOLCAS    OPER   

 PROGRAMS   *        TOTAL       INT
 CPU TIMES  *         5.44      5.29
 REAL TIME  *         6.47 SEC
 DISK USED  *        30.60 MB (local),        1.78 GB (total)
 GA USED    *         0.00 MB       (max)       0.00 MB       (current)
 **********************************************************************************************************************************


 Program * Restricted Hartree-Fock

 Orbital guess generated from atomic densities.

 Initial occupancy:  24

 NELEC=   48   SYM=1   MS2= 0   THRE=1.0D-08   THRD=1.0D-06   THRG=1.0D-06  HFMA2=F  DIIS_START=2   DIIS_MAX=10   DIIS_INCORE=F

 Level shifts:    0.00 (CLOSED)    0.00 (OPEN)    0.30 (GAP_MIN)

 ITER           ETOT              DE          GRAD        DDIFF     DIIS  NEXP   TIME(IT)  TIME(TOT)  DIAG
   1     -234.16978713    -234.16978713     0.00D+00     0.27D-01     0     0      38.95     78.78    start
   2     -234.24073227      -0.07094514     0.37D-02     0.28D-02     1     0      41.88    120.66    diag
   3     -234.25238578      -0.01165351     0.17D-02     0.13D-02     2     0      48.27    168.93    diag
   4     -234.25435250      -0.00196672     0.57D-03     0.54D-03     3     0      44.04    212.97    diag
   5     -234.25438169      -0.00002919     0.55D-04     0.11D-03     4     0      44.12    257.09    diag
   6     -234.25438244      -0.00000076     0.10D-04     0.17D-04     5     0      44.65    301.74    diag
   7     -234.25438247      -0.00000002     0.16D-05     0.29D-05     6     0      41.17    342.91    diag
   8     -234.25438247      -0.00000000     0.21D-06     0.28D-06     7     0      39.59    382.50    fixocc
   9     -234.25438247      -0.00000000     0.40D-07     0.41D-07     0     0      40.80    423.30    diag

 Final occupancy:  24

 !RHF STATE 1.1 Energy               -234.254382465915
  RHF One-electron energy            -823.703579172356
  RHF Two-electron energy             332.807658357871
  RHF Kinetic energy                  233.838291263902
  RHF Nuclear energy                  256.641538348570
  RHF Virial quotient                  -1.001779397205

 !RHF STATE 1.1 Dipole moment           0.00000374    -0.00001665     0.00003296
 Dipole moment /Debye                   0.00000950    -0.00004231     0.00008378

 Orbital energies:

           1.1          2.1          3.1          4.1          5.1          6.1          7.1          8.1          9.1         10.1
    -11.218462   -11.218161   -11.218157   -11.217512   -11.217506   -11.217174    -1.119317    -1.001128    -1.001037    -0.819878

          11.1         12.1         13.1         14.1         15.1         16.1         17.1         18.1         19.1         20.1
     -0.819779    -0.739105    -0.646151    -0.599710    -0.593958    -0.593845    -0.520882    -0.520688    -0.519840    -0.475641

          21.1         22.1         23.1         24.1         25.1         26.1
     -0.475502    -0.445896    -0.422525    -0.422283     0.151895     0.164956


 HOMO     24.1    -0.422283 =     -11.4909eV
 LUMO     25.1     0.151895 =       4.1333eV
 LUMO-HOMO         0.574178 =      15.6242eV

 Orbitals saved in record  2100.2


 **********************************************************************************************************************************
 DATASETS  * FILE   NREC   LENGTH (MB)   RECORD NAMES
              1      18       30.02       500      610      700      900      950      970     1000      129      960     1100   
                                          VAR    BASINP    GEOM    SYMINP    ZMAT    AOBASIS   BASIS     P2S    ABASIS      S 
                                         1400     1410     1200     1210     1080     1600     1650     1700   
                                           T        V       H0       H01     AOSYM     SMH    MOLCAS    OPER   

              2       4        1.15       700     1000      520     2100   
                                         GEOM     BASIS   MCVARS     RHF  

 PROGRAMS   *        TOTAL    HF-SCF       INT
 CPU TIMES  *       428.82    423.38      5.29
 REAL TIME  *       116.75 SEC
 DISK USED  *        33.22 MB (local),        1.79 GB (total)
 GA USED    *         0.00 MB       (max)       0.00 MB       (current)
 **********************************************************************************************************************************


 PROGRAM * OPT (Geometry optimization)     Authors: F. Eckert and H.-J. Werner


 BFGS update of hessian

 *** Long output written to logfile /home/zwa/Overlap_Integral_Project/overlap_integral_gaussian/molpro_files/cyclohexane/cyclochair.log ***


 Geometry optimization using default procedure for command HF-SCF

 Geometry written to block  1 of record 700

 Entering BMAT geometry-optimization, modelhes=F
 Optimization method: RF

 ITER.   ENERGY(OLD)    ENERGY(NEW)      DE          GRADMAX     GRADNORM    GRADRMS     STEPMAX     STEPLEN     STEPRMS   CPU-time
   1  -234.25438247  -234.26351631    -0.00913384  0.02856887  0.10255175  0.01395553  0.06012565  0.22317065  0.05260183    363.45
   2  -234.26351631  -234.26357513    -0.00005882  0.00195297  0.00860914  0.00117156  0.00839325  0.02373230  0.00559376    715.59
   3  -234.26357513  -234.26357675    -0.00000161  0.00027321  0.00098034  0.00013341  0.00129867  0.00479477  0.00113014   1053.91
   4  -234.26357675  -234.26357682    -0.00000007  0.00008849  0.00025452  0.00003464  0.00023263  0.00076834  0.00018110   1354.07

 END OF GEOMETRY OPTIMIZATION.

 Geometry written to block  1 of record 700

 Recomputing wavefunction for reoriented structure

 Current geometry (xyz format, in Angstrom)

   18
 HF-SCF000/6-311G(D,P)  ENERGY=-234.26357682
 C         -0.9237788756       -0.2283602583       -1.1327919871
 C         -1.4429106822        0.2283670678        0.2336210977
 C         -0.5191360329       -0.2283718327        1.3664090450
 C          0.9237739536        0.2283698242        1.1327916085
 C          1.4429129930       -0.2283628703       -0.2336164618
 C          0.5191387301        0.2283581557       -1.3664136357
 H         -0.8812790741        0.1485877891        2.3195864453
 H         -1.5124206032        1.3159657400        0.2448871551
 H         -2.4494576920       -0.1485950309        0.3965805458
 H         -0.9682949821       -1.3159580736       -1.1873670277
 H         -1.5681836370        0.1486141889       -1.9229977838
 H          0.9682685322        1.3159682923        1.1873695225
 H          1.5681875933       -0.1485923128        1.9229965053
 H          2.4494560116        0.1486044441       -0.3965874681
 H          1.5124309217       -1.3159612804       -0.2448605434
 H          0.5441545490        1.3159557111       -1.4322533373
 H          0.8812777744       -0.1486201027       -2.3195846244
 H         -0.5441404191       -1.3159703947        1.4322345805

 **********************************************************************************************************************************


 **********************************************************************************************************************************
 DATASETS  * FILE   NREC   LENGTH (MB)   RECORD NAMES
              1      18       30.02       500      610      700      900      950      970     1000      129      960     1100   
                                          VAR    BASINP    GEOM    SYMINP    ZMAT    AOBASIS   BASIS     P2S    ABASIS      S 
                                         1400     1410     1200     1210     1080     1600     1650     1700   
                                           T        V       H0       H01     AOSYM     SMH    MOLCAS    OPER   

              2       4        1.15       700     1000      520     2100   
                                         GEOM     BASIS   MCVARS     RHF  

 PROGRAMS   *        TOTAL      OPTG    HF-SCF       INT
 CPU TIMES  *      2214.77   1785.93    423.38      5.29
 REAL TIME  *       624.79 SEC
 DISK USED  *        33.34 MB (local),        1.80 GB (total)
 SF USED    *         0.06 MB
 GA USED    *         0.00 MB       (max)       0.00 MB       (current)
 **********************************************************************************************************************************


 PROGRAM * HESSIAN

 PROGRAM * MCKINLEY (Hessian of the energy)     Author: A. Bernhardsson, R. Lindh

 Orbitals from record         2100.2

 Number of closed-shell orbitals: 24 ( 24 )
 Number of occupied orbitals:     24 ( 24 )

 Number of electrons= 48     Singlet     Space symmetry=1      Wavefunction type: CLOSED          


 McKinley needed   2468.12 seconds of CPU time

 Entering CPHF calculation

 CPHF needed 438 iterations for 54 perturbations.  Total CPU time: 3128.43 sec


 HF-SCF hessian saved to record  5300.2

 PROGRAM * FREQUENCIES (Calculation of harmonic vibrational spectra for HF-SCF)


 Permanent Dipole Moment [debye]
 1-3    0.000000    0.000000    0.000000

 Dipole Moment Norm    0.0000000 [debye]

 Dipole Moment Derivatives [debye/ang]
              1             2             3             4             5             6             7             8
    1    0.00000000    0.00000000    0.00000000    0.00000000    0.00000000    0.00000000    0.00000000    0.00000000
    2    0.00000000    0.00000000    0.00000000    0.00000000    0.00000000    0.00000000    0.00000000    0.00000000
    3    0.00000000    0.00000000    0.00000000    0.00000000    0.00000000    0.00000000    0.00000000    0.00000000
              9            10            11            12            13            14            15            16
    1    0.00000000    0.00000000    0.00000000    0.00000000    0.00000000    0.00000000    0.00000000    0.00000000
    2    0.00000000    0.00000000    0.00000000    0.00000000    0.00000000    0.00000000    0.00000000    0.00000000
    3    0.00000000    0.00000000    0.00000000    0.00000000    0.00000000    0.00000000    0.00000000    0.00000000
             17            18            19            20            21            22            23            24
    1    0.00000000    0.00000000    0.00000000    0.00000000    0.00000000    0.00000000    0.00000000    0.00000000
    2    0.00000000    0.00000000    0.00000000    0.00000000    0.00000000    0.00000000    0.00000000    0.00000000
    3    0.00000000    0.00000000    0.00000000    0.00000000    0.00000000    0.00000000    0.00000000    0.00000000
             25            26            27            28            29            30            31            32
    1    0.00000000    0.00000000    0.00000000    0.00000000    0.00000000    0.00000000    0.00000000    0.00000000
    2    0.00000000    0.00000000    0.00000000    0.00000000    0.00000000    0.00000000    0.00000000    0.00000000
    3    0.00000000    0.00000000    0.00000000    0.00000000    0.00000000    0.00000000    0.00000000    0.00000000
             33            34            35            36            37            38            39            40
    1    0.00000000    0.00000000    0.00000000    0.00000000    0.00000000    0.00000000    0.00000000    0.00000000
    2    0.00000000    0.00000000    0.00000000    0.00000000    0.00000000    0.00000000    0.00000000    0.00000000
    3    0.00000000    0.00000000    0.00000000    0.00000000    0.00000000    0.00000000    0.00000000    0.00000000
             41            42            43            44            45            46            47            48
    1    0.00000000    0.00000000    0.00000000    0.00000000    0.00000000    0.00000000    0.00000000    0.00000000
    2    0.00000000    0.00000000    0.00000000    0.00000000    0.00000000    0.00000000    0.00000000    0.00000000
    3    0.00000000    0.00000000    0.00000000    0.00000000    0.00000000    0.00000000    0.00000000    0.00000000
             49            50            51            52            53            54
    1    0.00000000    0.00000000    0.00000000    0.00000000    0.00000000    0.00000000
    2    0.00000000    0.00000000    0.00000000    0.00000000    0.00000000    0.00000000
    3    0.00000000    0.00000000    0.00000000    0.00000000    0.00000000    0.00000000

 Projecting out rotations and translations

 Force Constants (Second Derivatives of the Energy) in [a.u.]
                             CX1         CY1         CZ1         CX2         CY2     
           CX1           0.5602184
           CY1          -0.0205901   0.6341550
           CZ1           0.0590041  -0.0252514   0.5844546
           CX2          -0.1113614   0.0122180   0.0335795   0.6294963
           CY2           0.0134706  -0.1080571  -0.0335691   0.0321627   0.6341544
           CZ2           0.0362835  -0.0340455  -0.1900337  -0.0190045  -0.0052050
           CX3           0.0125644  -0.0056153   0.0072730  -0.1401138   0.0233762
           CY3          -0.0087556   0.0065139  -0.0085350   0.0223370  -0.1080578
           CZ3          -0.0218607   0.0108623  -0.0313038  -0.0501803   0.0276048
           CX4           0.0015067  -0.0007961   0.0008722  -0.0266541  -0.0065993
           CY4          -0.0007961  -0.0005694  -0.0009761   0.0117696   0.0065139
           CZ4           0.0008722  -0.0009762   0.0018649  -0.0299158  -0.0102939
           CX5          -0.0266532   0.0117695  -0.0299157   0.0025307   0.0012434
           CY5          -0.0065989   0.0065139  -0.0102937   0.0012434  -0.0005694
           CZ5          -0.0007816  -0.0033151   0.0079142  -0.0002809  -0.0002013
           CX6          -0.2006181  -0.0358067   0.0179523  -0.0140199  -0.0030136
           CY6          -0.0355927  -0.1080569   0.0064415   0.0122144   0.0065139
           CZ6           0.0152481   0.0051187  -0.1007779   0.0372095   0.0118500
           HX7          -0.0035094   0.0023463  -0.0031311   0.0095168  -0.0099374
           HY7           0.0017582  -0.0005455   0.0012907  -0.0046730   0.0043868
           HZ7          -0.0054781   0.0033326  -0.0023907   0.0108411  -0.0113475
           HX8          -0.0005587   0.0128560  -0.0001174  -0.0614450   0.0128656
           HY8          -0.0000154  -0.0118356   0.0001031   0.0151950  -0.3205343
           HZ8           0.0015224  -0.0366190  -0.0007166   0.0007601  -0.0020859
           HX9          -0.0100991  -0.0048586   0.0004842  -0.2885303  -0.0882669
           HY9           0.0130726   0.0043866  -0.0021517  -0.0913336  -0.0941702
           HZ9           0.0330398   0.0142797  -0.0032996   0.0373448   0.0142905
           HX10         -0.0586759  -0.0082404  -0.0023591   0.0000696   0.0147024
           HY10         -0.0097315  -0.3205343  -0.0119304  -0.0000572  -0.0118362
           HZ10         -0.0023591  -0.0101016  -0.0596444  -0.0008250  -0.0359177
           HX11         -0.1524078   0.0565116  -0.1159358   0.0095432  -0.0058492
           HY11          0.0584750  -0.0941725   0.0717054  -0.0083461   0.0043870
           HZ11         -0.1159357   0.0692978  -0.2000304  -0.0216345   0.0139039
           HX12         -0.0002024   0.0000077   0.0000038   0.0020885  -0.0007455
           HY12         -0.0000970   0.0002618  -0.0001190   0.0007772  -0.0000430
           HZ12          0.0000039   0.0000095  -0.0002008  -0.0002621  -0.0007621
           HX13          0.0000971   0.0001206   0.0007505  -0.0063984  -0.0040593
           HY13          0.0000749   0.0000201   0.0000919  -0.0019969  -0.0005455
           HZ13          0.0007505   0.0001479   0.0004054   0.0014632   0.0003657
           HX14         -0.0007394   0.0027923  -0.0049092   0.0009783  -0.0001884
           HY14          0.0009106  -0.0005454   0.0019819  -0.0001170   0.0000201
           HZ14         -0.0025621   0.0029687  -0.0051609  -0.0002417   0.0000305
           HX15          0.0011638   0.0010634   0.0007792  -0.0001978  -0.0000121
           HY15         -0.0006423  -0.0000429  -0.0004470   0.0001516   0.0002618
           HZ15          0.0013600  -0.0000749   0.0008522  -0.0000012   0.0000019
           HX16         -0.0009874  -0.0384569   0.0014351   0.0018564  -0.0004669
           HY16          0.0001040  -0.0118358   0.0000059   0.0007083  -0.0000430
           HZ16         -0.0002054   0.0052261  -0.0002882  -0.0003794   0.0009584
           HX17         -0.0101811   0.0149658   0.0330224  -0.0072907  -0.0039671
           HY17         -0.0047377   0.0043869   0.0123724  -0.0021716  -0.0005454
           HZ17          0.0004672  -0.0018863  -0.0032171   0.0011269   0.0009339
           HX18          0.0004433  -0.0002873   0.0012120  -0.0000685   0.0252848
           HY18         -0.0003087  -0.0000429  -0.0007191  -0.0000817  -0.0118359
           HZ18          0.0006312   0.0010266   0.0015728   0.0004005   0.0294431
                             CZ2         CX3         CY3         CZ3         CX4     
           CZ2           0.5151786
           CX3          -0.0528844   0.5272977
           CY3           0.0284516  -0.0115723   0.6341562
           CZ3          -0.1612820  -0.0399978   0.0304557   0.6173766
           CX4          -0.0007819  -0.2006177  -0.0355943   0.0152478   0.5602204
           CY4          -0.0033150  -0.0358088  -0.1080578   0.0051187  -0.0205923
           CZ4           0.0079138   0.0179522   0.0064420  -0.1007775   0.0590048
           CX5          -0.0002810  -0.0140205   0.0122141   0.0372096  -0.1113617
           CY5          -0.0002013  -0.0030140   0.0065139   0.0118505   0.0134711
           CZ5           0.0008409   0.0080757  -0.0005681  -0.0047195   0.0362840
           CX6           0.0080755   0.0010200  -0.0004473  -0.0005913   0.0125646
           CY6          -0.0005681  -0.0004474  -0.0005694   0.0011776  -0.0087559
           CZ6          -0.0047191  -0.0005913   0.0011774   0.0023516  -0.0218606
           HX7          -0.0217145  -0.0877224   0.0317570   0.0785906  -0.0101812
           HY7           0.0123973   0.0328604  -0.0941699  -0.0864904  -0.0047378
           HZ7          -0.0229153   0.0785905  -0.0835861  -0.2647175   0.0004671
           HX8           0.0007601  -0.0009953   0.0237542   0.0002101   0.0011638
           HY8          -0.0024628  -0.0000470  -0.0118367  -0.0000931  -0.0006424
           HZ8          -0.0568751  -0.0014302   0.0306916  -0.0002799   0.0013600
           HX9           0.0373450  -0.0194592  -0.0091162   0.0048897  -0.0007394
           HY9           0.0147871   0.0130842   0.0043870  -0.0020834   0.0009106
           HZ9          -0.0639095  -0.0276655  -0.0120174   0.0060612  -0.0025622
           HX10          0.0008155   0.0000038  -0.0005966  -0.0006903  -0.0002024
           HY10          0.0000872  -0.0000660  -0.0000430   0.0007798  -0.0000970
           HZ10         -0.0013451  -0.0001095  -0.0008836   0.0020122   0.0000039
           HX11          0.0109207  -0.0008203   0.0011748   0.0026088   0.0000971
           HY11         -0.0102893   0.0012611  -0.0005455  -0.0017795   0.0000749
           HZ11         -0.0229416   0.0049559  -0.0039026  -0.0050800   0.0007505
           HX12          0.0003187  -0.0012855  -0.0381410  -0.0011032  -0.0586754
           HY12          0.0000922   0.0000970  -0.0118366  -0.0000384  -0.0097266
           HZ12         -0.0000725   0.0005370   0.0071758   0.0000104  -0.0023587
           HX13          0.0038102  -0.0195151   0.0147960  -0.0276025  -0.1524100
           HY13          0.0008773  -0.0083999   0.0043870  -0.0102458   0.0584737
           HZ13          0.0004981   0.0049527  -0.0029324   0.0061171  -0.1159367
           HX14         -0.0002417   0.0010574   0.0017129   0.0028414  -0.0100988
           HY14          0.0000189   0.0002387  -0.0005455  -0.0021680   0.0130730
           HZ14         -0.0004758   0.0004944  -0.0036982  -0.0069577   0.0330391
           HX15         -0.0000013   0.0004922   0.0010328  -0.0006595  -0.0005588
           HY15         -0.0000245  -0.0004685  -0.0000430   0.0006270  -0.0000152
           HZ15         -0.0002053  -0.0012403  -0.0002646   0.0015237   0.0015231
           HX16         -0.0009602  -0.0002046   0.0000043  -0.0000026   0.0004432
           HY16         -0.0003327  -0.0000545   0.0002618   0.0001435  -0.0003087
           HZ16          0.0001596  -0.0000026  -0.0000114  -0.0001986   0.0006312
           HX17         -0.0012203  -0.0003216   0.0000678  -0.0005087  -0.0035095
           HY17         -0.0002023   0.0000421   0.0000201  -0.0001108   0.0017581
           HZ17          0.0013904  -0.0005087  -0.0001784   0.0008241  -0.0054782
           HX18         -0.0012394  -0.0573595  -0.0046278   0.0015988  -0.0009868
           HY18         -0.0000650  -0.0054660  -0.3205350   0.0143896   0.0001042
           HZ18         -0.0012064   0.0015988   0.0121837  -0.0609606  -0.0002054
                             CY4         CZ4         CX5         CY5         CZ5     
           CY4           0.6341558
           CZ4          -0.0252479   0.5844533
           CX5           0.0122179   0.0335800   0.6294949
           CY5          -0.1080574  -0.0335701   0.0321627   0.6341540
           CZ5          -0.0340455  -0.1900335  -0.0190079  -0.0052097   0.5151794
           CX6          -0.0056151   0.0072732  -0.1401134   0.0233747  -0.0528839
           CY6           0.0065140  -0.0085355   0.0223363  -0.1080569   0.0284505
           CZ6           0.0108617  -0.0313036  -0.0501798   0.0276034  -0.1612822
           HX7           0.0149653   0.0330224  -0.0072906  -0.0039673  -0.0012202
           HY7           0.0043869   0.0123729  -0.0021717  -0.0005455  -0.0002024
           HZ7          -0.0018862  -0.0032169   0.0011268   0.0009339   0.0013904
           HX8           0.0010635   0.0007792  -0.0001978  -0.0000121  -0.0000012
           HY8          -0.0000430  -0.0004471   0.0001516   0.0002618  -0.0000246
           HZ8          -0.0000748   0.0008522  -0.0000012   0.0000020  -0.0002053
           HX9           0.0027924  -0.0049092   0.0009783  -0.0001884  -0.0002418
           HY9          -0.0005455   0.0019819  -0.0001170   0.0000201   0.0000190
           HZ9           0.0029688  -0.0051608  -0.0002418   0.0000305  -0.0004757
           HX10          0.0000077   0.0000039   0.0020885  -0.0007454   0.0003187
           HY10          0.0002618  -0.0001190   0.0007771  -0.0000429   0.0000922
           HZ10          0.0000095  -0.0002008  -0.0002621  -0.0007621  -0.0000725
           HX11          0.0001206   0.0007505  -0.0063983  -0.0040591   0.0038103
           HY11          0.0000201   0.0000919  -0.0019968  -0.0005454   0.0008773
           HZ11          0.0001479   0.0004054   0.0014632   0.0003656   0.0004981
           HX12         -0.0082351  -0.0023587   0.0000693   0.0147025   0.0008152
           HY12         -0.3205348  -0.0119309  -0.0000570  -0.0118356   0.0000874
           HZ12         -0.0101023  -0.0596447  -0.0008247  -0.0359173  -0.0013444
           HX13          0.0565103  -0.1159369   0.0095433  -0.0058490   0.0109209
           HY13         -0.0941703   0.0717030  -0.0083460   0.0043867  -0.0102893
           HZ13          0.0692953  -0.2000296  -0.0216347   0.0139035  -0.0229421
           HX14         -0.0048586   0.0004840  -0.2885288  -0.0882679   0.0373474
           HY14          0.0043870  -0.0021516  -0.0913346  -0.0941711   0.0147880
           HZ14          0.0142801  -0.0032994   0.0373474   0.0142915  -0.0639103
           HX15          0.0128563  -0.0001173  -0.0614453   0.0128676   0.0007596
           HY15         -0.0118365   0.0001031   0.0151969  -0.3205341  -0.0024579
           HZ15         -0.0366191  -0.0007166   0.0007596  -0.0020805  -0.0568748
           HX16         -0.0002873   0.0012120  -0.0000685   0.0252849  -0.0012401
           HY16         -0.0000429  -0.0007191  -0.0000817  -0.0118359  -0.0000647
           HZ16          0.0010266   0.0015728   0.0004005   0.0294435  -0.0012071
           HX17          0.0023462  -0.0031310   0.0095168  -0.0099377  -0.0217141
           HY17         -0.0005454   0.0012907  -0.0046729   0.0043869   0.0123970
           HZ17          0.0033325  -0.0023908   0.0108411  -0.0113480  -0.0229152
           HX18         -0.0384566   0.0014347   0.0018564  -0.0004669  -0.0009601
           HY18         -0.0118363   0.0000057   0.0007084  -0.0000430  -0.0003328
           HZ18          0.0052258  -0.0002882  -0.0003793   0.0009584   0.0001596
                             CX6         CY6         CZ6         HX7         HY7     
           CX6           0.5272972
           CY6          -0.0115717   0.6341552
           CZ6          -0.0399975   0.0304579   0.6173755
           HX7          -0.0003216   0.0000678  -0.0005087   0.0949887
           HY7           0.0000421   0.0000201  -0.0001108  -0.0353040   0.0957992
           HZ7          -0.0005087  -0.0001784   0.0008241  -0.0854486   0.0929217
           HX8           0.0004923   0.0010327  -0.0006595   0.0008774  -0.0008324
           HY8          -0.0004684  -0.0000429   0.0006269  -0.0001732   0.0007574
           HZ8          -0.0012403  -0.0002645   0.0015238   0.0010565  -0.0002787
           HX9           0.0010574   0.0017129   0.0028414   0.0008067  -0.0003680
           HY9           0.0002387  -0.0005455  -0.0021679  -0.0006968   0.0000807
           HZ9           0.0004943  -0.0036982  -0.0069577   0.0008187  -0.0007869
           HX10         -0.0012859  -0.0381411  -0.0011031  -0.0001143  -0.0000627
           HY10          0.0000969  -0.0118356  -0.0000383  -0.0000119   0.0004764
           HZ10          0.0005372   0.0071759   0.0000103   0.0002466   0.0004077
           HX11         -0.0195154   0.0147963  -0.0276028   0.0005793  -0.0000606
           HY11         -0.0083996   0.0043868  -0.0102453  -0.0002207   0.0004986
           HZ11          0.0049526  -0.0029324   0.0061171  -0.0015773   0.0005174
           HX12          0.0000038  -0.0005966  -0.0006903   0.0016927   0.0008075
           HY12         -0.0000660  -0.0000429   0.0007798  -0.0004358   0.0007574
           HZ12         -0.0001095  -0.0008835   0.0020122  -0.0003756   0.0003443
           HX13         -0.0008203   0.0011748   0.0026088   0.0009506   0.0007977
           HY13          0.0012611  -0.0005455  -0.0017795   0.0008655   0.0000807
           HZ13          0.0049559  -0.0039027  -0.0050799  -0.0007356  -0.0003441
           HX14         -0.0194597  -0.0091163   0.0048897  -0.0009013  -0.0002983
           HY14          0.0130836   0.0043867  -0.0020832   0.0004784   0.0004986
           HZ14         -0.0276659  -0.0120173   0.0060612   0.0024321   0.0004271
           HX15         -0.0009952   0.0237542   0.0002100   0.0001753  -0.0002238
           HY15         -0.0000471  -0.0118356  -0.0000930   0.0000786   0.0004764
           HZ15         -0.0014300   0.0306916  -0.0002802  -0.0004060   0.0003465
           HX16         -0.0573594  -0.0046306   0.0015992   0.0001140   0.0000074
           HY16         -0.0054687  -0.3205342   0.0143930  -0.0000504  -0.0000313
           HZ16          0.0015992   0.0121872  -0.0609609   0.0000731  -0.0000196
           HX17         -0.0877219   0.0317584   0.0785896   0.0002259   0.0000144
           HY17          0.0328618  -0.0941731  -0.0864943   0.0000144  -0.0000567
           HZ17          0.0785896  -0.0835901  -0.2647157   0.0001010  -0.0000379
           HX18         -0.0002045   0.0000043  -0.0000026   0.0001135   0.0124446
           HY18         -0.0000545   0.0002618   0.0001435   0.0002242  -0.0128703
           HZ18         -0.0000026  -0.0000114  -0.0001986  -0.0012236  -0.0327548
                             HZ7         HX8         HY8         HZ8         HX9     
           HZ7           0.2874292
           HX8           0.0005425   0.0595051
           HY8           0.0008514  -0.0169201   0.3507527
           HZ8           0.0009259   0.0007522   0.0027423   0.0640290
           HX9          -0.0005735   0.0032403  -0.0006230  -0.0005815   0.3133197
           HY9          -0.0005188  -0.0345887  -0.0128704   0.0056000   0.0981253
           HZ9           0.0008570  -0.0005818   0.0001008  -0.0002572  -0.0406040
           HX10         -0.0000799  -0.0000693   0.0007772   0.0032606   0.0002215
           HY10         -0.0001049   0.0011260   0.0009413  -0.0024384   0.0008239
           HZ10          0.0003547   0.0024405  -0.0025709  -0.0064894  -0.0001638
           HX11          0.0007648   0.0004035  -0.0004329  -0.0008827   0.0007383
           HY11         -0.0004719  -0.0007019   0.0007574   0.0005272  -0.0001009
           HZ11         -0.0018640  -0.0003688  -0.0007532   0.0013999   0.0006130
           HX12          0.0001384  -0.0003680   0.0007660  -0.0003686   0.0003029
           HY12          0.0007516  -0.0004637   0.0008852  -0.0006314  -0.0001004
           HZ12          0.0001107  -0.0001684  -0.0001643   0.0002367   0.0000058
           HX13          0.0006566   0.0003097   0.0000968   0.0003247  -0.0016049
           HY13          0.0000748  -0.0003217   0.0004764  -0.0002582  -0.0004179
           HZ13          0.0007131  -0.0000019   0.0000422  -0.0000692   0.0003162
           HX14          0.0000901  -0.0000729   0.0001401   0.0000348  -0.0000322
           HY14         -0.0002063  -0.0000207  -0.0000313   0.0000033  -0.0000400
           HZ14         -0.0003833   0.0000348  -0.0000227   0.0001362   0.0000480
           HX15         -0.0000794   0.0001022  -0.0002103  -0.0000417  -0.0000729
           HY15         -0.0000706  -0.0002103   0.0000591   0.0000340   0.0001401
           HZ15          0.0000652  -0.0000417   0.0000340  -0.0001488   0.0000348
           HX16          0.0000732  -0.0001470   0.0007787   0.0004962   0.0001653
           HY16          0.0001327  -0.0002407   0.0008851   0.0007455  -0.0000849
           HZ16         -0.0000507   0.0002960  -0.0000859   0.0000157  -0.0000815
           HX17          0.0001010   0.0001753   0.0000786  -0.0004060  -0.0009013
           HY17         -0.0000379  -0.0002238   0.0004764   0.0003465  -0.0002983
           HZ17         -0.0000016  -0.0000794  -0.0000706   0.0000652   0.0000901
           HX18         -0.0012237  -0.0024157   0.0015488  -0.0046153   0.0006088
           HY18         -0.0005899   0.0018379   0.0009413   0.0019586   0.0008688
           HZ18          0.0028695  -0.0037952   0.0021945  -0.0041430   0.0004873
                             HY9         HZ9         HX10        HY10        HZ10    
           HY9           0.0957996
           HZ9          -0.0158864   0.0690980
           HX10          0.0001749  -0.0006777   0.0622469
           HY10          0.0007575  -0.0002757   0.0108364   0.3507526
           HZ10          0.0008602   0.0015819  -0.0023349   0.0132850   0.0612877
           HX11         -0.0004975  -0.0007792   0.0011211   0.0003986   0.0018056
           HY11          0.0000807   0.0008629   0.0221441  -0.0128708   0.0271544
           HZ11          0.0007121   0.0009254   0.0018055   0.0004889   0.0018625
           HX12          0.0004119   0.0003323  -0.0000499   0.0001346   0.0001295
           HY12          0.0004764  -0.0000327   0.0001346   0.0000591   0.0001651
           HZ12          0.0000206  -0.0000624   0.0001295   0.0001651   0.0000033
           HX13          0.0005191  -0.0020259   0.0000538  -0.0000897  -0.0001079
           HY13          0.0004986  -0.0003112   0.0000132  -0.0000313   0.0000162
           HZ13          0.0000448   0.0003203  -0.0001079  -0.0001100   0.0000095
           HX14         -0.0000400   0.0000480   0.0003029  -0.0001004   0.0000058
           HY14         -0.0000567   0.0000065   0.0004120   0.0004764   0.0000206
           HZ14          0.0000065   0.0002565   0.0003323  -0.0000328  -0.0000624
           HX15         -0.0000207   0.0000348  -0.0003680  -0.0004637  -0.0001684
           HY15         -0.0000313  -0.0000227   0.0007660   0.0008851  -0.0001643
           HZ15          0.0000034   0.0001362  -0.0003686  -0.0006314   0.0002367
           HX16          0.0003844  -0.0004080  -0.0073531  -0.0026150   0.0017647
           HY16          0.0004764   0.0000628  -0.0026747   0.0009414   0.0002441
           HZ16         -0.0001495   0.0000752   0.0009446   0.0006124   0.0007943
           HX17          0.0004784   0.0024321   0.0016927  -0.0004358  -0.0003755
           HY17          0.0004985   0.0004271   0.0008075   0.0007575   0.0003443
           HZ17         -0.0002063  -0.0003833   0.0001384   0.0007516   0.0001107
           HX18         -0.0001056   0.0010013   0.0003181  -0.0005253  -0.0002277
           HY18          0.0007574   0.0000017  -0.0003150   0.0008851   0.0007173
           HZ18         -0.0008714   0.0011945  -0.0000275  -0.0005812  -0.0004493
                             HX11        HY11        HZ11        HX12        HY12    
           HX11          0.1653187
           HY11         -0.0628232   0.0958020
           HZ11          0.1260527  -0.0770375   0.2170970
           HX12          0.0000538   0.0000132  -0.0001079   0.0622465
           HY12         -0.0000897  -0.0000313  -0.0001100   0.0108309   0.3507533
           HZ12         -0.0001079   0.0000162   0.0000095  -0.0023349   0.0132853
           HX13          0.0001427   0.0000256  -0.0001490   0.0011207   0.0003989
           HY13          0.0000256  -0.0000567   0.0000314   0.0221444  -0.0128704
           HZ13         -0.0001490   0.0000314   0.0000815   0.0018054   0.0004890
           HX14         -0.0016050  -0.0004178   0.0003162   0.0002214   0.0008239
           HY14          0.0005190   0.0004985   0.0000448   0.0001748   0.0007574
           HZ14         -0.0020259  -0.0003112   0.0003203  -0.0006777  -0.0002758
           HX15          0.0003097  -0.0003217  -0.0000019  -0.0000694   0.0011260
           HY15          0.0000968   0.0004764   0.0000422   0.0007772   0.0009413
           HZ15          0.0003247  -0.0002582  -0.0000692   0.0032607  -0.0024384
           HX16          0.0016062   0.0006575  -0.0006357   0.0003181  -0.0005252
           HY16         -0.0006507   0.0007575  -0.0005757  -0.0003150   0.0008851
           HZ16         -0.0001218  -0.0005815   0.0001972  -0.0000275  -0.0005813
           HX17          0.0009506   0.0008655  -0.0007356  -0.0001143  -0.0000119
           HY17          0.0007977   0.0000807  -0.0003441  -0.0000627   0.0004764
           HZ17          0.0006566   0.0000748   0.0007131  -0.0000799  -0.0001050
           HX18         -0.0001175  -0.0001882   0.0002369  -0.0073530  -0.0026152
           HY18          0.0000218   0.0004764   0.0001033  -0.0026748   0.0009413
           HZ18         -0.0000896  -0.0003670   0.0003580   0.0009445   0.0006124
                             HZ12        HX13        HY13        HZ13        HX14    
           HZ12          0.0612873
           HX13          0.0018051   0.1653209
           HY13          0.0271545  -0.0628219   0.0957997
           HZ13          0.0018625   0.1260538  -0.0770347   0.2170967
           HX14         -0.0001637   0.0007383  -0.0001009   0.0006130   0.3133182
           HY14          0.0008603  -0.0004975   0.0000807   0.0007122   0.0981264
           HZ14          0.0015819  -0.0007792   0.0008628   0.0009254  -0.0406063
           HX15          0.0024406   0.0004035  -0.0007019  -0.0003688   0.0032406
           HY15         -0.0025710  -0.0004330   0.0007575  -0.0007532  -0.0006228
           HZ15         -0.0064894  -0.0008827   0.0005271   0.0013999  -0.0005816
           HX16         -0.0002277  -0.0001175  -0.0001882   0.0002369   0.0006089
           HY16          0.0007173   0.0000218   0.0004764   0.0001033   0.0008688
           HZ16         -0.0004493  -0.0000896  -0.0003671   0.0003580   0.0004873
           HX17          0.0002466   0.0005793  -0.0002207  -0.0015773   0.0008067
           HY17          0.0004077  -0.0000605   0.0004985   0.0005174  -0.0003680
           HZ17          0.0003547   0.0007648  -0.0004719  -0.0018640  -0.0005735
           HX18          0.0017647   0.0016061   0.0006576  -0.0006357   0.0001653
           HY18          0.0002441  -0.0006507   0.0007574  -0.0005756  -0.0000849
           HZ18          0.0007943  -0.0001217  -0.0005815   0.0001972  -0.0000815
                             HY14        HZ14        HX15        HY15        HZ15    
           HY14          0.0958005
           HZ14         -0.0158878   0.0690987
           HX15         -0.0345886  -0.0005813   0.0595053
           HY15         -0.0128705   0.0001009  -0.0169223   0.3507525
           HZ15          0.0056002  -0.0002573   0.0007521   0.0027371   0.0640292
           HX16         -0.0001055   0.0010013  -0.0024157   0.0015487  -0.0046153
           HY16          0.0007575   0.0000016   0.0018379   0.0009414   0.0019585
           HZ16         -0.0008714   0.0011945  -0.0037952   0.0021943  -0.0041431
           HX17         -0.0006968   0.0008187   0.0008774  -0.0001732   0.0010565
           HY17          0.0000807  -0.0007869  -0.0008324   0.0007575  -0.0002787
           HZ17         -0.0005188   0.0008570   0.0005425   0.0008514   0.0009259
           HX18          0.0003844  -0.0004080  -0.0001470   0.0007787   0.0004962
           HY18          0.0004764   0.0000628  -0.0002408   0.0008851   0.0007455
           HZ18         -0.0001495   0.0000752   0.0002960  -0.0000858   0.0000157
                             HX16        HY16        HZ16        HX17        HY17    
           HX16          0.0635496
           HY16          0.0060896   0.3507525
           HZ16          0.0015827  -0.0160272   0.0599851
           HX17          0.0001136   0.0002240  -0.0012240   0.0949881
           HY17          0.0124444  -0.0128709  -0.0327545  -0.0353054   0.0958027
           HZ17         -0.0012240  -0.0005896   0.0028701  -0.0854475   0.0929260
           HX18         -0.0001222   0.0000756  -0.0000878   0.0001141   0.0000074
           HY18          0.0000756   0.0000591  -0.0001991  -0.0000504  -0.0000313
           HZ18         -0.0000878  -0.0001991   0.0000756   0.0000732  -0.0000196
                             HZ17        HX18        HY18        HZ18    
           HZ17          0.2874270
           HX18          0.0000732   0.0635491
           HY18          0.0001327   0.0060866   0.3507534
           HZ18         -0.0000507   0.0015827  -0.0160231   0.0599845


 Atomic Masses
 1-10   12.000000   12.000000   12.000000   12.000000   12.000000   12.000000    1.007825    1.007825    1.007825    1.007825
 11-18    1.007825    1.007825    1.007825    1.007825    1.007825    1.007825    1.007825    1.007825

 Mass weighted Second Derivative Matrix
                             CX1         CY1         CZ1         CX2         CY2     
           CX1           0.0466849
           CY1          -0.0017158   0.0528462
           CZ1           0.0049170  -0.0021043   0.0487046
           CX2          -0.0092801   0.0010182   0.0027983   0.0524580
           CY2           0.0011225  -0.0090048  -0.0027974   0.0026802   0.0528462
           CZ2           0.0030236  -0.0028371  -0.0158361  -0.0015837  -0.0004338
           CX3           0.0010470  -0.0004679   0.0006061  -0.0116762   0.0019480
           CY3          -0.0007296   0.0005428  -0.0007113   0.0018614  -0.0090048
           CZ3          -0.0018217   0.0009052  -0.0026087  -0.0041817   0.0023004
           CX4           0.0001256  -0.0000663   0.0000727  -0.0022212  -0.0005499
           CY4          -0.0000663  -0.0000474  -0.0000813   0.0009808   0.0005428
           CZ4           0.0000727  -0.0000814   0.0001554  -0.0024930  -0.0008578
           CX5          -0.0022211   0.0009808  -0.0024930   0.0002109   0.0001036
           CY5          -0.0005499   0.0005428  -0.0008578   0.0001036  -0.0000475
           CZ5          -0.0000651  -0.0002763   0.0006595  -0.0000234  -0.0000168
           CX6          -0.0167182  -0.0029839   0.0014960  -0.0011683  -0.0002511
           CY6          -0.0029661  -0.0090047   0.0005368   0.0010179   0.0005428
           CZ6           0.0012707   0.0004266  -0.0083982   0.0031008   0.0009875
           HX7          -0.0010091   0.0006747  -0.0009003   0.0027366  -0.0028575
           HY7           0.0005056  -0.0001569   0.0003711  -0.0013437   0.0012614
           HZ7          -0.0015752   0.0009583  -0.0006875   0.0031174  -0.0032630
           HX8          -0.0001606   0.0036968  -0.0000338  -0.0176686   0.0036995
           HY8          -0.0000044  -0.0034033   0.0000297   0.0043694  -0.0921704
           HZ8           0.0004378  -0.0105299  -0.0002060   0.0002186  -0.0005998
           HX9          -0.0029040  -0.0013971   0.0001392  -0.0829675  -0.0253813
           HY9           0.0037591   0.0012614  -0.0006187  -0.0262632  -0.0270789
           HZ9           0.0095007   0.0041062  -0.0009488   0.0107386   0.0041093
           HX10         -0.0168724  -0.0023695  -0.0006784   0.0000200   0.0042277
           HY10         -0.0027983  -0.0921704  -0.0034306  -0.0000164  -0.0034035
           HZ10         -0.0006784  -0.0029047  -0.0171509  -0.0002372  -0.0103282
           HX11         -0.0438252   0.0162501  -0.0333376   0.0027442  -0.0016820
           HY11          0.0168146  -0.0270795   0.0206191  -0.0023999   0.0012615
           HZ11         -0.0333376   0.0199267  -0.0575192  -0.0062211   0.0039981
           HX12         -0.0000582   0.0000022   0.0000011   0.0006006  -0.0002144
           HY12         -0.0000279   0.0000753  -0.0000342   0.0002235  -0.0000124
           HZ12          0.0000011   0.0000027  -0.0000577  -0.0000754  -0.0002192
           HX13          0.0000279   0.0000347   0.0002158  -0.0018399  -0.0011673
           HY13          0.0000215   0.0000058   0.0000264  -0.0005742  -0.0001569
           HZ13          0.0002158   0.0000425   0.0001166   0.0004208   0.0001052
           HX14         -0.0002126   0.0008029  -0.0014117   0.0002813  -0.0000542
           HY14          0.0002618  -0.0001568   0.0005699  -0.0000337   0.0000058
           HZ14         -0.0007367   0.0008537  -0.0014840  -0.0000695   0.0000088
           HX15          0.0003347   0.0003058   0.0002241  -0.0000569  -0.0000035
           HY15         -0.0001847  -0.0000123  -0.0001285   0.0000436   0.0000753
           HZ15          0.0003911  -0.0000215   0.0002450  -0.0000004   0.0000006
           HX16         -0.0002839  -0.0110584   0.0004127   0.0005338  -0.0001342
           HY16          0.0000299  -0.0034034   0.0000017   0.0002037  -0.0000124
           HZ16         -0.0000591   0.0015028  -0.0000829  -0.0001091   0.0002756
           HX17         -0.0029276   0.0043035   0.0094957  -0.0020964  -0.0011408
           HY17         -0.0013623   0.0012615   0.0035577  -0.0006245  -0.0001568
           HZ17          0.0001343  -0.0005424  -0.0009251   0.0003240   0.0002685
           HX18          0.0001275  -0.0000826   0.0003485  -0.0000197   0.0072707
           HY18         -0.0000888  -0.0000123  -0.0002068  -0.0000235  -0.0034034
           HZ18          0.0001815   0.0002952   0.0004523   0.0001152   0.0084664
                             CZ2         CX3         CY3         CZ3         CX4     
           CZ2           0.0429316
           CX3          -0.0044070   0.0439415
           CY3           0.0023710  -0.0009644   0.0528464
           CZ3          -0.0134402  -0.0033332   0.0025380   0.0514481
           CX4          -0.0000652  -0.0167181  -0.0029662   0.0012707   0.0466850
           CY4          -0.0002762  -0.0029841  -0.0090048   0.0004266  -0.0017160
           CZ4           0.0006595   0.0014960   0.0005368  -0.0083981   0.0049171
           CX5          -0.0000234  -0.0011684   0.0010178   0.0031008  -0.0092801
           CY5          -0.0000168  -0.0002512   0.0005428   0.0009875   0.0011226
           CZ5           0.0000701   0.0006730  -0.0000473  -0.0003933   0.0030237
           CX6           0.0006730   0.0000850  -0.0000373  -0.0000493   0.0010470
           CY6          -0.0000473  -0.0000373  -0.0000474   0.0000981  -0.0007297
           CZ6          -0.0003933  -0.0000493   0.0000981   0.0001960  -0.0018217
           HX7          -0.0062440  -0.0252248   0.0091318   0.0225989  -0.0029276
           HY7           0.0035649   0.0094491  -0.0270788  -0.0248705  -0.0013624
           HZ7          -0.0065894   0.0225989  -0.0240354  -0.0761201   0.0001343
           HX8           0.0002186  -0.0002862   0.0068306   0.0000604   0.0003347
           HY8          -0.0007082  -0.0000135  -0.0034037  -0.0000268  -0.0001847
           HZ8          -0.0163546  -0.0004112   0.0088254  -0.0000805   0.0003911
           HX9           0.0107386  -0.0055955  -0.0026214   0.0014060  -0.0002126
           HY9           0.0042521   0.0037624   0.0012615  -0.0005991   0.0002618
           HZ9          -0.0183773  -0.0079553  -0.0034556   0.0017429  -0.0007368
           HX10          0.0002345   0.0000011  -0.0001715  -0.0001985  -0.0000582
           HY10          0.0000251  -0.0000190  -0.0000124   0.0002242  -0.0000279
           HZ10         -0.0003868  -0.0000315  -0.0002541   0.0005786   0.0000011
           HX11          0.0031403  -0.0002359   0.0003378   0.0007502   0.0000279
           HY11         -0.0029587   0.0003626  -0.0001568  -0.0005117   0.0000215
           HZ11         -0.0065969   0.0014251  -0.0011222  -0.0014608   0.0002158
           HX12          0.0000916  -0.0003697  -0.0109675  -0.0003172  -0.0168722
           HY12          0.0000265   0.0000279  -0.0034036  -0.0000110  -0.0027969
           HZ12         -0.0000209   0.0001544   0.0020634   0.0000030  -0.0006783
           HX13          0.0010956  -0.0056116   0.0042546  -0.0079372  -0.0438258
           HY13          0.0002523  -0.0024154   0.0012615  -0.0029462   0.0168142
           HZ13          0.0001432   0.0014242  -0.0008432   0.0017590  -0.0333379
           HX14         -0.0000695   0.0003041   0.0004926   0.0008171  -0.0029039
           HY14          0.0000054   0.0000686  -0.0001569  -0.0006234   0.0037592
           HZ14         -0.0001368   0.0001422  -0.0010634  -0.0020007   0.0095005
           HX15         -0.0000004   0.0001415   0.0002970  -0.0001896  -0.0001607
           HY15         -0.0000071  -0.0001347  -0.0000124   0.0001803  -0.0000044
           HZ15         -0.0000590  -0.0003567  -0.0000761   0.0004382   0.0004380
           HX16         -0.0002761  -0.0000588   0.0000012  -0.0000008   0.0001274
           HY16         -0.0000957  -0.0000157   0.0000753   0.0000413  -0.0000888
           HZ16          0.0000459  -0.0000008  -0.0000033  -0.0000571   0.0001815
           HX17         -0.0003509  -0.0000925   0.0000195  -0.0001463  -0.0010092
           HY17         -0.0000582   0.0000121   0.0000058  -0.0000319   0.0005056
           HZ17          0.0003998  -0.0001463  -0.0000513   0.0002370  -0.0015753
           HX18         -0.0003564  -0.0164939  -0.0013307   0.0004597  -0.0002838
           HY18         -0.0000187  -0.0015718  -0.0921706   0.0041377   0.0000300
           HZ18         -0.0003469   0.0004597   0.0035035  -0.0175294  -0.0000591
                             CY4         CZ4         CX5         CY5         CZ5     
           CY4           0.0528463
           CZ4          -0.0021040   0.0487044
           CX5           0.0010182   0.0027983   0.0524579
           CY5          -0.0090048  -0.0027975   0.0026802   0.0528462
           CZ5          -0.0028371  -0.0158361  -0.0015840  -0.0004341   0.0429316
           CX6          -0.0004679   0.0006061  -0.0116761   0.0019479  -0.0044070
           CY6           0.0005428  -0.0007113   0.0018614  -0.0090047   0.0023709
           CZ6           0.0009051  -0.0026086  -0.0041817   0.0023003  -0.0134402
           HX7           0.0043033   0.0094957  -0.0020964  -0.0011408  -0.0003509
           HY7           0.0012615   0.0035578  -0.0006245  -0.0001569  -0.0000582
           HZ7          -0.0005424  -0.0009250   0.0003240   0.0002685   0.0003998
           HX8           0.0003058   0.0002241  -0.0000569  -0.0000035  -0.0000003
           HY8          -0.0000124  -0.0001286   0.0000436   0.0000753  -0.0000071
           HZ8          -0.0000215   0.0002451  -0.0000004   0.0000006  -0.0000590
           HX9           0.0008030  -0.0014116   0.0002813  -0.0000542  -0.0000695
           HY9          -0.0001569   0.0005699  -0.0000337   0.0000058   0.0000055
           HZ9           0.0008537  -0.0014840  -0.0000695   0.0000088  -0.0001368
           HX10          0.0000022   0.0000011   0.0006006  -0.0002143   0.0000917
           HY10          0.0000753  -0.0000342   0.0002234  -0.0000123   0.0000265
           HZ10          0.0000027  -0.0000577  -0.0000754  -0.0002191  -0.0000208
           HX11          0.0000347   0.0002158  -0.0018399  -0.0011672   0.0010957
           HY11          0.0000058   0.0000264  -0.0005742  -0.0001568   0.0002523
           HZ11          0.0000425   0.0001166   0.0004207   0.0001051   0.0001432
           HX12         -0.0023680  -0.0006782   0.0000199   0.0042277   0.0002344
           HY12         -0.0921705  -0.0034307  -0.0000164  -0.0034034   0.0000251
           HZ12         -0.0029049  -0.0171510  -0.0002371  -0.0103281  -0.0003866
           HX13          0.0162497  -0.0333379   0.0027442  -0.0016819   0.0031403
           HY13         -0.0270789   0.0206184  -0.0023999   0.0012614  -0.0029587
           HZ13          0.0199260  -0.0575190  -0.0062211   0.0039980  -0.0065971
           HX14         -0.0013971   0.0001392  -0.0829671  -0.0253816   0.0107393
           HY14          0.0012615  -0.0006187  -0.0262635  -0.0270791   0.0042523
           HZ14          0.0041063  -0.0009487   0.0107393   0.0041096  -0.0183776
           HX15          0.0036968  -0.0000337  -0.0176687   0.0037001   0.0002184
           HY15         -0.0034036   0.0000297   0.0043699  -0.0921703  -0.0007068
           HZ15         -0.0105299  -0.0002061   0.0002184  -0.0005983  -0.0163545
           HX16         -0.0000826   0.0003485  -0.0000197   0.0072707  -0.0003566
           HY16         -0.0000124  -0.0002068  -0.0000235  -0.0034034  -0.0000186
           HZ16          0.0002952   0.0004523   0.0001152   0.0084665  -0.0003471
           HX17          0.0006747  -0.0009003   0.0027366  -0.0028576  -0.0062439
           HY17         -0.0001568   0.0003711  -0.0013437   0.0012615   0.0035648
           HZ17          0.0009583  -0.0006875   0.0031174  -0.0032631  -0.0065893
           HX18         -0.0110583   0.0004125   0.0005338  -0.0001343  -0.0002761
           HY18         -0.0034036   0.0000016   0.0002037  -0.0000124  -0.0000957
           HZ18          0.0015027  -0.0000829  -0.0001091   0.0002756   0.0000459
                             CX6         CY6         CZ6         HX7         HY7     
           CX6           0.0439414
           CY6          -0.0009643   0.0528463
           CZ6          -0.0033331   0.0025382   0.0514480
           HX7          -0.0000925   0.0000195  -0.0001463   0.0942512
           HY7           0.0000121   0.0000058  -0.0000319  -0.0350299   0.0950554
           HZ7          -0.0001463  -0.0000513   0.0002370  -0.0847851   0.0922002
           HX8           0.0001416   0.0002970  -0.0001896   0.0008706  -0.0008259
           HY8          -0.0001347  -0.0000123   0.0001803  -0.0001718   0.0007516
           HZ8          -0.0003567  -0.0000761   0.0004382   0.0010482  -0.0002765
           HX9           0.0003041   0.0004926   0.0008171   0.0008004  -0.0003651
           HY9           0.0000686  -0.0001568  -0.0006234  -0.0006914   0.0000801
           HZ9           0.0001421  -0.0010634  -0.0020007   0.0008123  -0.0007808
           HX10         -0.0003698  -0.0109676  -0.0003172  -0.0001134  -0.0000622
           HY10          0.0000279  -0.0034033  -0.0000110  -0.0000118   0.0004727
           HZ10          0.0001545   0.0020634   0.0000030   0.0002447   0.0004045
           HX11         -0.0056117   0.0042547  -0.0079372   0.0005748  -0.0000601
           HY11         -0.0024153   0.0012614  -0.0029461  -0.0002190   0.0004947
           HZ11          0.0014241  -0.0008432   0.0017590  -0.0015650   0.0005134
           HX12          0.0000011  -0.0001715  -0.0001985   0.0016795   0.0008012
           HY12         -0.0000190  -0.0000123   0.0002242  -0.0004324   0.0007516
           HZ12         -0.0000315  -0.0002541   0.0005786  -0.0003727   0.0003416
           HX13         -0.0002359   0.0003378   0.0007502   0.0009432   0.0007915
           HY13          0.0003626  -0.0001569  -0.0005117   0.0008588   0.0000801
           HZ13          0.0014251  -0.0011222  -0.0014607  -0.0007299  -0.0003414
           HX14         -0.0055957  -0.0026214   0.0014060  -0.0008943  -0.0002960
           HY14          0.0037622   0.0012614  -0.0005990   0.0004747   0.0004947
           HZ14         -0.0079554  -0.0034556   0.0017429   0.0024133   0.0004238
           HX15         -0.0002862   0.0068306   0.0000604   0.0001739  -0.0002220
           HY15         -0.0000135  -0.0034033  -0.0000267   0.0000780   0.0004727
           HZ15         -0.0004112   0.0088254  -0.0000806  -0.0004028   0.0003438
           HX16         -0.0164938  -0.0013315   0.0004599   0.0001132   0.0000074
           HY16         -0.0015725  -0.0921704   0.0041387  -0.0000500  -0.0000311
           HZ16          0.0004599   0.0035045  -0.0175295   0.0000726  -0.0000194
           HX17         -0.0252246   0.0091322   0.0225986   0.0002241   0.0000143
           HY17          0.0094495  -0.0270797  -0.0248716   0.0000143  -0.0000562
           HZ17          0.0225986  -0.0240365  -0.0761196   0.0001002  -0.0000376
           HX18         -0.0000588   0.0000012  -0.0000008   0.0001126   0.0123479
           HY18         -0.0000157   0.0000753   0.0000413   0.0002224  -0.0127704
           HZ18         -0.0000008  -0.0000033  -0.0000571  -0.0012141  -0.0325005
                             HZ7         HX8         HY8         HZ8         HX9     
           HZ7           0.2851976
           HX8           0.0005383   0.0590431
           HY8           0.0008448  -0.0167887   0.3480294
           HZ8           0.0009188   0.0007464   0.0027211   0.0635319
           HX9          -0.0005691   0.0032152  -0.0006181  -0.0005770   0.3108870
           HY9          -0.0005148  -0.0343202  -0.0127705   0.0055565   0.0973634
           HZ9           0.0008504  -0.0005773   0.0001000  -0.0002552  -0.0402888
           HX10         -0.0000793  -0.0000688   0.0007711   0.0032353   0.0002197
           HY10         -0.0001041   0.0011173   0.0009340  -0.0024195   0.0008175
           HZ10          0.0003520   0.0024216  -0.0025510  -0.0064390  -0.0001625
           HX11          0.0007589   0.0004004  -0.0004296  -0.0008759   0.0007326
           HY11         -0.0004682  -0.0006965   0.0007516   0.0005231  -0.0001001
           HZ11         -0.0018495  -0.0003659  -0.0007474   0.0013890   0.0006082
           HX12          0.0001374  -0.0003651   0.0007600  -0.0003657   0.0003006
           HY12          0.0007457  -0.0004601   0.0008783  -0.0006265  -0.0000996
           HZ12          0.0001098  -0.0001671  -0.0001630   0.0002349   0.0000057
           HX13          0.0006515   0.0003073   0.0000961   0.0003222  -0.0015925
           HY13          0.0000742  -0.0003192   0.0004727  -0.0002562  -0.0004146
           HZ13          0.0007076  -0.0000018   0.0000419  -0.0000687   0.0003137
           HX14          0.0000894  -0.0000723   0.0001390   0.0000345  -0.0000319
           HY14         -0.0002047  -0.0000205  -0.0000311   0.0000033  -0.0000397
           HZ14         -0.0003803   0.0000345  -0.0000225   0.0001352   0.0000476
           HX15         -0.0000788   0.0001014  -0.0002086  -0.0000414  -0.0000723
           HY15         -0.0000700  -0.0002086   0.0000586   0.0000338   0.0001390
           HZ15          0.0000647  -0.0000414   0.0000338  -0.0001476   0.0000345
           HX16          0.0000726  -0.0001458   0.0007726   0.0004924   0.0001640
           HY16          0.0001316  -0.0002389   0.0008782   0.0007397  -0.0000843
           HZ16         -0.0000503   0.0002937  -0.0000852   0.0000156  -0.0000809
           HX17          0.0001002   0.0001739   0.0000780  -0.0004028  -0.0008943
           HY17         -0.0000376  -0.0002220   0.0004727   0.0003438  -0.0002960
           HZ17         -0.0000016  -0.0000788  -0.0000700   0.0000647   0.0000894
           HX18         -0.0012142  -0.0023969   0.0015367  -0.0045795   0.0006041
           HY18         -0.0005854   0.0018237   0.0009340   0.0019434   0.0008621
           HZ18          0.0028473  -0.0037657   0.0021774  -0.0041109   0.0004835
                             HY9         HZ9         HX10        HY10        HZ10    
           HY9           0.0950558
           HZ9          -0.0157631   0.0685615
           HX10          0.0001735  -0.0006725   0.0617636
           HY10          0.0007516  -0.0002736   0.0107523   0.3480293
           HZ10          0.0008535   0.0015697  -0.0023167   0.0131819   0.0608118
           HX11         -0.0004936  -0.0007731   0.0011124   0.0003955   0.0017916
           HY11          0.0000801   0.0008562   0.0219722  -0.0127708   0.0269436
           HZ11          0.0007066   0.0009183   0.0017914   0.0004851   0.0018480
           HX12          0.0004087   0.0003297  -0.0000495   0.0001336   0.0001285
           HY12          0.0004727  -0.0000325   0.0001336   0.0000586   0.0001638
           HZ12          0.0000204  -0.0000619   0.0001285   0.0001638   0.0000033
           HX13          0.0005150  -0.0020102   0.0000534  -0.0000890  -0.0001071
           HY13          0.0004947  -0.0003088   0.0000131  -0.0000311   0.0000161
           HZ13          0.0000444   0.0003178  -0.0001071  -0.0001091   0.0000094
           HX14         -0.0000397   0.0000476   0.0003005  -0.0000996   0.0000057
           HY14         -0.0000562   0.0000064   0.0004088   0.0004727   0.0000204
           HZ14          0.0000064   0.0002545   0.0003297  -0.0000325  -0.0000619
           HX15         -0.0000205   0.0000345  -0.0003651  -0.0004601  -0.0001671
           HY15         -0.0000311  -0.0000225   0.0007600   0.0008782  -0.0001630
           HZ15          0.0000033   0.0001352  -0.0003658  -0.0006265   0.0002349
           HX16          0.0003814  -0.0004049  -0.0072960  -0.0025947   0.0017510
           HY16          0.0004727   0.0000623  -0.0026539   0.0009341   0.0002422
           HZ16         -0.0001483   0.0000746   0.0009373   0.0006076   0.0007882
           HX17          0.0004747   0.0024133   0.0016796  -0.0004325  -0.0003726
           HY17          0.0004947   0.0004238   0.0008012   0.0007516   0.0003416
           HZ17         -0.0002047  -0.0003803   0.0001373   0.0007457   0.0001098
           HX18         -0.0001048   0.0009935   0.0003156  -0.0005212  -0.0002260
           HY18          0.0007515   0.0000017  -0.0003125   0.0008782   0.0007117
           HZ18         -0.0008647   0.0011852  -0.0000273  -0.0005767  -0.0004458
                             HX11        HY11        HZ11        HX12        HY12    
           HX11          0.1640351
           HY11         -0.0623354   0.0950582
           HZ11          0.1250740  -0.0764394   0.2154115
           HX12          0.0000534   0.0000131  -0.0001071   0.0617632
           HY12         -0.0000890  -0.0000311  -0.0001091   0.0107468   0.3480299
           HZ12         -0.0001071   0.0000161   0.0000094  -0.0023167   0.0131821
           HX13          0.0001416   0.0000254  -0.0001478   0.0011120   0.0003958
           HY13          0.0000254  -0.0000562   0.0000312   0.0219724  -0.0127705
           HZ13         -0.0001478   0.0000312   0.0000809   0.0017914   0.0004852
           HX14         -0.0015925  -0.0004146   0.0003137   0.0002197   0.0008175
           HY14          0.0005150   0.0004947   0.0000444   0.0001734   0.0007515
           HZ14         -0.0020102  -0.0003087   0.0003178  -0.0006725  -0.0002736
           HX15          0.0003073  -0.0003192  -0.0000019  -0.0000689   0.0011173
           HY15          0.0000961   0.0004727   0.0000418   0.0007712   0.0009340
           HZ15          0.0003221  -0.0002562  -0.0000687   0.0032354  -0.0024195
           HX16          0.0015937   0.0006524  -0.0006308   0.0003156  -0.0005212
           HY16         -0.0006457   0.0007516  -0.0005712  -0.0003126   0.0008782
           HZ16         -0.0001208  -0.0005770   0.0001957  -0.0000272  -0.0005767
           HX17          0.0009432   0.0008587  -0.0007299  -0.0001134  -0.0000118
           HY17          0.0007915   0.0000801  -0.0003414  -0.0000623   0.0004727
           HZ17          0.0006515   0.0000742   0.0007075  -0.0000793  -0.0001041
           HX18         -0.0001166  -0.0001867   0.0002351  -0.0072959  -0.0025949
           HY18          0.0000217   0.0004727   0.0001025  -0.0026540   0.0009339
           HZ18         -0.0000889  -0.0003642   0.0003552   0.0009372   0.0006077
                             HZ12        HX13        HY13        HZ13        HX14    
           HZ12          0.0608114
           HX13          0.0017911   0.1640373
           HY13          0.0269437  -0.0623342   0.0950559
           HZ13          0.0018480   0.1250751  -0.0764366   0.2154111
           HX14         -0.0001625   0.0007326  -0.0001001   0.0006082   0.3108855
           HY14          0.0008536  -0.0004936   0.0000801   0.0007066   0.0973645
           HZ14          0.0015696  -0.0007731   0.0008561   0.0009183  -0.0402910
           HX15          0.0024216   0.0004004  -0.0006965  -0.0003659   0.0032155
           HY15         -0.0025511  -0.0004296   0.0007516  -0.0007474  -0.0006180
           HZ15         -0.0064390  -0.0008759   0.0005230   0.0013890  -0.0005771
           HX16         -0.0002259  -0.0001166  -0.0001867   0.0002351   0.0006042
           HY16          0.0007117   0.0000217   0.0004727   0.0001025   0.0008621
           HZ16         -0.0004458  -0.0000889  -0.0003642   0.0003552   0.0004836
           HX17          0.0002447   0.0005748  -0.0002190  -0.0015650   0.0008004
           HY17          0.0004045  -0.0000601   0.0004947   0.0005134  -0.0003651
           HZ17          0.0003520   0.0007589  -0.0004682  -0.0018495  -0.0005691
           HX18          0.0017510   0.0015937   0.0006525  -0.0006308   0.0001640
           HY18          0.0002422  -0.0006457   0.0007516  -0.0005712  -0.0000843
           HZ18          0.0007882  -0.0001208  -0.0005770   0.0001957  -0.0000809
                             HY14        HZ14        HX15        HY15        HZ15    
           HY14          0.0950567
           HZ14         -0.0157645   0.0685622
           HX15         -0.0343201  -0.0005768   0.0590433
           HY15         -0.0127706   0.0001001  -0.0167909   0.3480292
           HZ15          0.0055568  -0.0002553   0.0007463   0.0027158   0.0635320
           HX16         -0.0001047   0.0009935  -0.0023969   0.0015367  -0.0045795
           HY16          0.0007516   0.0000016   0.0018236   0.0009341   0.0019433
           HZ16         -0.0008647   0.0011853  -0.0037658   0.0021773  -0.0041110
           HX17         -0.0006914   0.0008123   0.0008706  -0.0001718   0.0010483
           HY17          0.0000801  -0.0007808  -0.0008259   0.0007516  -0.0002766
           HZ17         -0.0005147   0.0008504   0.0005383   0.0008448   0.0009188
           HX18          0.0003814  -0.0004049  -0.0001459   0.0007726   0.0004924
           HY18          0.0004727   0.0000623  -0.0002389   0.0008783   0.0007397
           HZ18         -0.0001483   0.0000746   0.0002937  -0.0000852   0.0000156
                             HX16        HY16        HZ16        HX17        HY17    
           HX16          0.0630562
           HY16          0.0060423   0.3480292
           HZ16          0.0015704  -0.0159028   0.0595193
           HX17          0.0001127   0.0002223  -0.0012145   0.0942506
           HY17          0.0123478  -0.0127710  -0.0325002  -0.0350313   0.0950589
           HZ17         -0.0012145  -0.0005851   0.0028478  -0.0847841   0.0922045
           HX18         -0.0001212   0.0000751  -0.0000871   0.0001132   0.0000074
           HY18          0.0000751   0.0000586  -0.0001976  -0.0000500  -0.0000311
           HZ18         -0.0000871  -0.0001976   0.0000750   0.0000726  -0.0000194
                             HZ17        HX18        HY18        HZ18    
           HZ17          0.2851954
           HX18          0.0000726   0.0630557
           HY18          0.0001316   0.0060393   0.3480301
           HZ18         -0.0000503   0.0015704  -0.0158987   0.0595188


 Mass Weighted 2nd Derivative Matrix Eigenvalues
 1-10    0.000000    0.000000    0.000000    0.000000    0.000000    0.000000    0.002302    0.002302    0.006119    0.007901
 11-20    0.007901    0.011833    0.027177    0.027661    0.027661    0.031872    0.031873    0.036849    0.036849    0.045822
 21-30    0.045822    0.048003    0.049969    0.051870    0.057073    0.062363    0.072647    0.072647    0.073816    0.073816
 31-40    0.080685    0.085518    0.085524    0.085524    0.086388    0.086388    0.097263    0.097263    0.098534    0.098534
 41-50    0.098570    0.101069    0.372377    0.372377    0.373358    0.373364    0.373365    0.373826    0.383634    0.383635
 51-54    0.384100    0.384100    0.385427    0.387097

 Mass Weighted 2nd Derivative Matrix Eigenvectors
              1             2             3             4             5             6             7             8
    1    0.00000000    0.00000000   -0.00000003    0.00000000    0.47229928    0.00000000   -0.03497908    0.12112991
    2    0.24686541   -0.22059424    0.23287478    0.43894575   -0.04581452    0.05696747   -0.21793155   -0.27979946
    3   -0.16531436    0.07925226   -0.14607370    0.09178885   -0.12953214    0.34319887    0.12144986    0.02052857
    4    0.08924236   -0.07433318    0.06903423   -0.07973996    0.25804980    0.24501888    0.11169346   -0.03676791
    5    0.00894679   -0.01395389    0.51599842    0.26252969   -0.07156069    0.14587524    0.35127300   -0.04883291
    6   -0.05188418   -0.01805873   -0.21448085    0.12046136   -0.20232473    0.40656952   -0.03644990   -0.12614260
    7    0.23458911    0.00810891   -0.07253154   -0.17637035    0.12186226    0.38843949   -0.09838956   -0.08484233
    8   -0.07261403    0.39088704    0.42846446    0.06679706   -0.02574637    0.12279877   -0.13334095    0.32862498
    9   -0.20329790    0.07794219   -0.13432930    0.12034306   -0.07279318    0.28030737   -0.08452047    0.08394085
   10    0.17364299   -0.07141693    0.04294026   -0.14319480    0.13196811    0.38477337   -0.03497583    0.12112828
   11    0.08374299    0.58908990    0.05780691    0.04747926    0.04581429    0.01081457   -0.21793154   -0.27978810
   12   -0.27403323   -0.02573639   -0.14579814    0.28747992    0.12953143    0.03872557    0.12145588    0.02052695
   13    0.08440156    0.00291720   -0.02609542   -0.06345538    0.34621716    0.13975489    0.11169140   -0.03677649
   14    0.32166152    0.38245190   -0.22531786    0.22389433    0.07156082   -0.07809353    0.35127561   -0.04884245
   15   -0.38746485    0.07157574   -0.07739016    0.25880716    0.20232504   -0.02464600   -0.03644829   -0.12614097
   16   -0.06094453   -0.07952185    0.11546636    0.03317500    0.48240687   -0.00366843   -0.09838955   -0.08484132
   17    0.40322367   -0.02239097   -0.13778507    0.41962827    0.02574652   -0.05501743   -0.13334378    0.32863760
   18   -0.23605369   -0.02442130   -0.15753961    0.25892293    0.07279354    0.10161677   -0.08451716    0.08393864
   19    0.08458092   -0.01559376   -0.00303927   -0.06661476   -0.00883530    0.16331226   -0.01944517    0.00545145
   20   -0.06914140    0.15505380    0.18140671   -0.01630610   -0.01266631    0.05356109   -0.10902748    0.26870153
   21   -0.03358917   -0.00075016   -0.05473335    0.04309021   -0.03581170    0.09340393    0.00661243   -0.03243287
   22   -0.00075616   -0.07588765    0.09491783   -0.01182245    0.05869395    0.09404155    0.23238168   -0.05473698
   23    0.00040945   -0.00681019    0.15471264    0.07635093   -0.02173750    0.04383851    0.11540582   -0.01604208
   24    0.03150552   -0.07348478   -0.09955279    0.07855755   -0.06145880    0.10900604   -0.05702001   -0.13064263
   25    0.03962784   -0.00254882   -0.00736146   -0.03043332    0.07357936    0.07053932   -0.03441112    0.00202747
   26   -0.02901613   -0.04411319    0.22446970    0.07998735   -0.03520521    0.06491371    0.28721938   -0.03992655
   27   -0.00313169    0.01939134   -0.05786366   -0.00129640   -0.09953628    0.16730424    0.00318940   -0.01746767
   28    0.02544068    0.05430496   -0.07454726   -0.01040064    0.15472284   -0.02498524    0.00850804    0.18627627
   29    0.07268067   -0.06958166    0.06871056    0.12994045   -0.01391697    0.01683173   -0.07159898   -0.09192636
   30   -0.09134835    0.09132595   -0.00589580   -0.01937891   -0.03934768    0.11341466    0.18399520    0.09323396
   31   -0.03082809   -0.01958338    0.03264391    0.02015275    0.16356617   -0.02778492   -0.02396334   -0.00922459
   32    0.08803041   -0.14577114    0.08518357    0.16677669   -0.02253897    0.02117446   -0.17819123   -0.22877884
   33   -0.01490265   -0.00010608   -0.06051131    0.02904308   -0.06372478    0.12434372   -0.00806270   -0.02791817
   34    0.02488153   -0.07500179    0.08699146   -0.03109760    0.02039516    0.13649362    0.00851093    0.18627000
   35    0.02312978    0.17637168    0.01553127    0.01102678    0.01391660    0.00281215   -0.07159908   -0.09191960
   36   -0.03597501   -0.07581695   -0.07868956    0.12929149    0.03934660   -0.00273109    0.18399905    0.09322743
   37    0.08114991   -0.00111403   -0.02019888   -0.06165080    0.01155182    0.13929337   -0.02396212   -0.00922035
   38    0.00778094    0.25256245   -0.00094397   -0.02580963    0.02253903   -0.00153126   -0.17819384   -0.22876873
   39   -0.11242106    0.01561433   -0.02407419    0.08087061    0.06372494   -0.01366164   -0.00806050   -0.02791648
   40    0.01069413   -0.01814797    0.01980569   -0.01106474    0.10153903    0.04096862   -0.03441327    0.00202852
   41    0.12482758    0.15090386   -0.14022990    0.06098001    0.03520519   -0.04527046    0.28722061   -0.03993762
   42   -0.12419238   -0.00388230   -0.02672146    0.11120945    0.09953620   -0.05662178    0.00318800   -0.01746685
   43    0.05107917    0.05519114   -0.08247423   -0.02967635    0.11642315    0.01746780    0.23238183   -0.05474933
   44    0.09540092    0.11360357   -0.07047253    0.06461492    0.02173765   -0.02419513    0.11540724   -0.01604778
[...]
           HX18             0.09694    -0.00338     0.00996    -0.00826     0.00191
           HY18            -0.03170    -0.23941     0.48966    -0.38180     0.20988
           HZ18            -0.25515     0.01252    -0.02445     0.02162    -0.00904

                             41 A        42 A        43 A        44 A        45 A  
 Wavenumbers [cm-1]         3141.02     3142.96     3183.93     3183.93     3185.86
 Intensities [km/mol]          0.00        0.00        0.00        0.00        0.00
 Intensities [relative]        0.00        0.00        0.00        0.00        0.00
           CX1             -0.01308     0.01512    -0.01484    -0.02208    -0.01194
           CY1             -0.02410     0.01314     0.01332     0.01893     0.02159
           CZ1             -0.01663     0.01854    -0.01917    -0.02638    -0.01521
           CX2             -0.00210    -0.02362    -0.04139     0.00386     0.03370
           CY2              0.00237     0.01313    -0.02308     0.00207     0.03816
           CZ2              0.00100     0.00382     0.00677     0.00014    -0.00549
           CX3              0.00806     0.00850    -0.00564     0.01388    -0.00490
           CY3              0.02710     0.01313     0.00974    -0.02105     0.01658
           CZ3             -0.02200    -0.02237     0.01678    -0.03563     0.01400
           CX4              0.01308     0.01512    -0.01486    -0.02209     0.01191
           CY4              0.02410     0.01313     0.01337     0.01894    -0.02156
           CZ4              0.01663     0.01854    -0.01920    -0.02640     0.01517
           CX5              0.00210    -0.02362    -0.04137     0.00388    -0.03372
           CY5             -0.00238     0.01313    -0.02306     0.00211    -0.03817
           CZ5             -0.00100     0.00382     0.00677     0.00014     0.00549
           CX6             -0.00806     0.00850    -0.00563     0.01386     0.00491
           CY6             -0.02710     0.01314     0.00971    -0.02101    -0.01659
           CZ6              0.02200    -0.02236     0.01675    -0.03558    -0.01403
           HX7             -0.08886    -0.09652     0.07317    -0.16521     0.06627
           HY7              0.10647     0.10935    -0.08037     0.17374    -0.06975
           HZ7              0.23825     0.25405    -0.20066     0.43111    -0.17535
           HX8              0.00181     0.00918    -0.01138     0.00079     0.02267
           HY8             -0.03817    -0.26566     0.08954    -0.00795    -0.29144
           HZ8              0.00129    -0.00149     0.00171    -0.00158    -0.00397
           HX9              0.02351     0.26825     0.49986    -0.04566    -0.42603
           HY9              0.01019     0.10934     0.19057    -0.01721    -0.16059
           HZ9             -0.00750    -0.04343    -0.08122     0.00421     0.06900
           HX10             0.01091    -0.00588    -0.00511    -0.00533    -0.00573
           HY10             0.38113    -0.26576    -0.05157    -0.07341    -0.16483
           HZ10             0.01195    -0.00721    -0.00440    -0.00784    -0.01213
           HX11             0.14359    -0.17174     0.18295     0.26394     0.15418
           HY11            -0.09616     0.10935    -0.11013    -0.15633    -0.09092
           HZ11             0.17940    -0.21060     0.22842     0.32078     0.18954
           HX12            -0.01090    -0.00587    -0.00512    -0.00532     0.00572
           HY12            -0.38115    -0.26573    -0.05192    -0.07345     0.16471
           HZ12            -0.01195    -0.00721    -0.00442    -0.00784     0.01212
           HX13            -0.14361    -0.17175     0.18324     0.26408    -0.15380
           HY13             0.09617     0.10935    -0.11030    -0.15641     0.09069
           HZ13            -0.17942    -0.21061     0.22878     0.32095    -0.18907
           HX14            -0.02351     0.26825     0.49962    -0.04594     0.42626
           HY14            -0.01019     0.10934     0.19049    -0.01732     0.16068
           HZ14             0.00750    -0.04343    -0.08118     0.00425    -0.06904
           HX15            -0.00181     0.00918    -0.01137     0.00081    -0.02268
           HY15             0.03823    -0.26568     0.08940    -0.00827     0.29146
           HZ15            -0.00129    -0.00148     0.00171    -0.00158     0.00397
           HX16             0.00709    -0.00331    -0.00294     0.00316     0.00027
           HY16             0.42704    -0.26579    -0.03760     0.08139     0.12671
           HZ16            -0.01678     0.00870     0.00406    -0.01000    -0.01061
           HX17             0.08885    -0.09652     0.07306    -0.16501    -0.06639
           HY17            -0.10646     0.10935    -0.08025     0.17354     0.06988
           HZ17            -0.23820     0.25404    -0.20035     0.43059     0.17567
           HX18            -0.00708    -0.00330    -0.00295     0.00316    -0.00026
           HY18            -0.42710    -0.26574    -0.03780     0.08167    -0.12667
           HZ18             0.01677     0.00869     0.00408    -0.01002     0.01060

                             46 A        47 A        48 A  
 Wavenumbers [cm-1]         3185.86     3191.36     3198.26
 Intensities [km/mol]          0.00        0.00        0.00
 Intensities [relative]        0.00        0.00        0.00
           CX1              0.01807    -0.01971     0.01173
           CY1             -0.03161     0.01052    -0.03160
           CZ1              0.02177    -0.02417     0.01438
           CX2              0.00264    -0.03078    -0.01831
           CY2              0.00289    -0.01051    -0.03159
           CZ2              0.00002     0.00498     0.00296
           CX3             -0.01113    -0.01107     0.00659
           CY3              0.03448     0.01051    -0.03159
           CZ3              0.02877     0.02914    -0.01734
           CX4             -0.01807     0.01970     0.01173
           CY4              0.03161    -0.01051    -0.03159
           CZ4             -0.02177     0.02416     0.01438
           CX5             -0.00259     0.03078    -0.01832
           CY5             -0.00286     0.01051    -0.03159
           CZ5             -0.00002    -0.00498     0.00297
           CX6              0.01115     0.01108     0.00659
           CY6             -0.03450    -0.01052    -0.03160
           CZ6             -0.02880    -0.02916    -0.01735
           HX7              0.13863     0.12975    -0.08624
           HY7             -0.14508    -0.13751     0.09018
           HZ7             -0.36443    -0.34150     0.22698
           HX8              0.00234    -0.00402    -0.02177
           HY8             -0.02207    -0.00370     0.28598
           HZ8              0.00356     0.00065     0.00353
           HX9             -0.03249     0.36066     0.23969
           HY9             -0.01223     0.13753     0.09019
           HZ9              0.00489    -0.05839    -0.03881
           HX10             0.01376    -0.00257     0.01394
           HY10             0.24139     0.00367     0.28601
           HZ10             0.01339    -0.00316     0.01710
           HX11            -0.22615     0.23099    -0.15349
           HY11             0.13307    -0.13759     0.09021
           HZ11            -0.27700     0.28325    -0.18822
           HX12            -0.01375     0.00257     0.01394
           HY12            -0.24144    -0.00369     0.28599
           HZ12            -0.01339     0.00316     0.01709
           HX13             0.22612    -0.23089    -0.15346
           HY13            -0.13304     0.13752     0.09019
           HZ13             0.27695    -0.28313    -0.18818
           HX14             0.03193    -0.36073     0.23972
           HY14             0.01201    -0.13756     0.09020
           HZ14            -0.00480     0.05841    -0.03881
           HX15            -0.00233     0.00402    -0.02177
           HY15             0.02191     0.00369     0.28599
           HZ15            -0.00357    -0.00065     0.00352
           HX16             0.00897     0.00145     0.00784
           HY16             0.26341    -0.00366     0.28602
           HZ16            -0.01885    -0.00381    -0.02062
           HX17            -0.13878    -0.12983    -0.08627
           HY17             0.14525     0.13760     0.09022
           HZ17             0.36484     0.34171     0.22706
           HX18            -0.00897    -0.00145     0.00783
           HY18            -0.26340     0.00369     0.28598
           HZ18             0.01884     0.00381    -0.02062


 Normal Modes of low/zero frequencies

                                  1           2           3           4           5
 Wavenumbers [cm-1]            0.00        0.00        0.00        0.00        0.00
 Intensities [km/mol]          0.00        0.00        0.00        0.00        0.00
 Intensities [relative]        0.00        0.00        0.00        0.00        0.00
           CX1             -0.00000     0.00000    -0.00000     0.00000     0.13634
           CY1              0.07126    -0.06368     0.06723     0.12671    -0.01323
           CZ1             -0.04772     0.02288    -0.04217     0.02650    -0.03739
           CX2              0.02576    -0.02146     0.01993    -0.02302     0.07449
           CY2              0.00258    -0.00403     0.14896     0.07579    -0.02066
           CZ2             -0.01498    -0.00521    -0.06192     0.03477    -0.05841
           CX3              0.06772     0.00234    -0.02094    -0.05091     0.03518
           CY3             -0.02096     0.11284     0.12369     0.01928    -0.00743
           CZ3             -0.05869     0.02250    -0.03878     0.03474    -0.02101
           CX4              0.05013    -0.02062     0.01240    -0.04134     0.03810
           CY4              0.02417     0.17006     0.01669     0.01371     0.01323
           CZ4             -0.07911    -0.00743    -0.04209     0.08299     0.03739
           CX5              0.02436     0.00084    -0.00753    -0.01832     0.09994
           CY5              0.09286     0.11040    -0.06504     0.06463     0.02066
           CZ5             -0.11185     0.02066    -0.02234     0.07471     0.05841
           CX6             -0.01759    -0.02296     0.03333     0.00958     0.13926
           CY6              0.11640    -0.00646    -0.03978     0.12114     0.00743
           CZ6             -0.06814    -0.00705    -0.04548     0.07474     0.02101
           HX7              0.08425    -0.01553    -0.00303    -0.06636    -0.00880
           HY7             -0.06887     0.15445     0.18070    -0.01624    -0.01262
           HZ7             -0.03346    -0.00075    -0.05452     0.04292    -0.03567
           HX8             -0.00075    -0.07559     0.09455    -0.01178     0.05847
           HY8              0.00041    -0.00678     0.15411     0.07605    -0.02165
           HZ8              0.03138    -0.07320    -0.09917     0.07825    -0.06122
           HX9              0.03947    -0.00254    -0.00733    -0.03031     0.07329
           HY9             -0.02890    -0.04394     0.22360     0.07968    -0.03507
           HZ9             -0.00312     0.01932    -0.05764    -0.00129    -0.09915
           HX10             0.02534     0.05409    -0.07426    -0.01036     0.15412
           HY10             0.07240    -0.06931     0.06844     0.12944    -0.01386
           HZ10            -0.09099     0.09097    -0.00587    -0.01930    -0.03919
           HX11            -0.03071    -0.01951     0.03252     0.02007     0.16293
           HY11             0.08769    -0.14520     0.08485     0.16613    -0.02245
           HZ11            -0.01484    -0.00011    -0.06028     0.02893    -0.06348
           HX12             0.02478    -0.07471     0.08665    -0.03098     0.02032
           HY12             0.02304     0.17569     0.01547     0.01098     0.01386
           HZ12            -0.03584    -0.07552    -0.07838     0.12879     0.03919
           HX13             0.08083    -0.00111    -0.02012    -0.06141     0.01151
           HY13             0.00775     0.25158    -0.00094    -0.02571     0.02245
           HZ13            -0.11198     0.01555    -0.02398     0.08056     0.06348
           HX14             0.01065    -0.01808     0.01973    -0.01102     0.10114
           HY14             0.12434     0.15032    -0.13968     0.06074     0.03507
           HZ14            -0.12371    -0.00387    -0.02662     0.11078     0.09915
           HX15             0.05088     0.05498    -0.08215    -0.02956     0.11597
           HY15             0.09503     0.11316    -0.07020     0.06436     0.02165
           HZ15            -0.15821     0.08865     0.01491     0.03123     0.06122
           HX16            -0.04620    -0.07716     0.10860     0.02239     0.12635
           HY16             0.11971    -0.00934    -0.04371     0.12359     0.00779
           HZ16            -0.02434    -0.07512    -0.08194     0.12015     0.02203
           HX17            -0.03412    -0.00508     0.01542     0.02502     0.18324
           HY17             0.16431    -0.04807    -0.09679     0.15666     0.01262
           HZ17            -0.09337     0.01620    -0.02973     0.06656     0.03567
           HX18             0.09632     0.05655    -0.09620    -0.06373     0.04808
           HY18            -0.02427     0.11571     0.12762     0.01683    -0.00779
           HZ18            -0.10249     0.09057    -0.00232    -0.01066    -0.02203

                                  6
 Wavenumbers [cm-1]            0.00
 Intensities [km/mol]          0.00
 Intensities [relative]        0.00
           CX1             -0.00000
           CY1              0.01645
           CZ1              0.09907
           CX2              0.07073
           CY2              0.04211
           CZ2              0.11737
           CX3              0.11213
           CY3              0.03545
           CZ3              0.08092
           CX4              0.11107
           CY4              0.00312
           CZ4              0.01118
           CX5              0.04034
           CY5             -0.02254
           CZ5             -0.00711
           CX6             -0.00106
           CY6             -0.01588
           CZ6              0.02933
           HX7              0.16268
           HY7              0.05335
           HZ7              0.09304
           HX8              0.09368
           HY8              0.04367
           HZ8              0.10858
           HX9              0.07026
           HY9              0.06466
           HZ9              0.16665
           HX10            -0.02489
           HY10             0.01677
           HZ10             0.11297
           HX11            -0.02768
           HY11             0.02109
           HZ11             0.12386
           HX12             0.13596
           HY12             0.00280
           HZ12            -0.00272
           HX13             0.13875
           HY13            -0.00153
           HZ13            -0.01361
           HX14             0.04081
           HY14            -0.04509
           HZ14            -0.05640
           HX15             0.01740
           HY15            -0.02410
           HZ15             0.00167
           HX16             0.01843
           HY16            -0.01712
           HZ16             0.01631
           HX17            -0.05160
           HY17            -0.03379
           HZ17             0.01721
           HX18             0.09265
           HY18             0.03669
           HZ18             0.09394


 Frequencies dumped to record   5400.2

 Zero point energy:  0.18020317 [H]    39550.03 [1/CM]      473.12 [KJ/MOL]
 Frequency information read from record  5400.2


 **********************************************************************************************************************************
 DATASETS  * FILE   NREC   LENGTH (MB)   RECORD NAMES
              1      18       30.02       500      610      700      900      950      970     1000      129      960     1100   
                                          VAR    BASINP    GEOM    SYMINP    ZMAT    AOBASIS   BASIS     P2S    ABASIS      S 
                                         1400     1410     1200     1210     1080     1600     1650     1700   
                                           T        V       H0       H01     AOSYM     SMH    MOLCAS    OPER   

              2       7        1.63       700     1000      520     2100     5300     5450     5400   
                                         GEOM     BASIS   MCVARS     RHF     HESS     NMOD     FREQ   

              4       5       27.02      4100     4000     4200     4300     4400   

 PROGRAMS   *        TOTAL      FREQ      OPTG    HF-SCF       INT
 CPU TIMES  *      7811.44   5596.67   1785.93    423.38      5.29
 REAL TIME  *      2103.40 SEC
 DISK USED  *        33.34 MB (local),        1.80 GB (total)
 SF USED    *        27.02 MB
 GA USED    *         0.01 MB       (max)       0.00 MB       (current)
 **********************************************************************************************************************************

 Dump information in style MOLDEN to cyclochair.molden                                                               

 Molecular orbitals read from record     2100.2  Type=RHF/CANONICAL  
 Occupation numbers read from record     2100.2  Type=RHF/RHF  
 Orbital energies read from record       2100.2  Type=RHF/CANONICAL  
 Redundancy group numbers read from rec  2100.2  Type=RHF/RHF  

 DUMP ORBITAL  1.1 AS ORBITAL    1  occ=    2.0000  eig=  -11.2109  GROUP=   2
 DUMP ORBITAL  2.1 AS ORBITAL    2  occ=    2.0000  eig=  -11.2106  GROUP=   2
 DUMP ORBITAL  3.1 AS ORBITAL    3  occ=    2.0000  eig=  -11.2106  GROUP=   2
 DUMP ORBITAL  4.1 AS ORBITAL    4  occ=    2.0000  eig=  -11.2100  GROUP=   2
 DUMP ORBITAL  5.1 AS ORBITAL    5  occ=    2.0000  eig=  -11.2100  GROUP=   2
 DUMP ORBITAL  6.1 AS ORBITAL    6  occ=    2.0000  eig=  -11.2097  GROUP=   2
 DUMP ORBITAL  7.1 AS ORBITAL    7  occ=    2.0000  eig=   -1.1114  GROUP=   2
 DUMP ORBITAL  8.1 AS ORBITAL    8  occ=    2.0000  eig=   -1.0003  GROUP=   2
 DUMP ORBITAL  9.1 AS ORBITAL    9  occ=    2.0000  eig=   -1.0003  GROUP=   2
 DUMP ORBITAL 10.1 AS ORBITAL   10  occ=    2.0000  eig=   -0.8280  GROUP=   2
 DUMP ORBITAL 11.1 AS ORBITAL   11  occ=    2.0000  eig=   -0.8280  GROUP=   2
 DUMP ORBITAL 12.1 AS ORBITAL   12  occ=    2.0000  eig=   -0.7501  GROUP=   2
 DUMP ORBITAL 13.1 AS ORBITAL   13  occ=    2.0000  eig=   -0.6471  GROUP=   2
 DUMP ORBITAL 14.1 AS ORBITAL   14  occ=    2.0000  eig=   -0.6076  GROUP=   2
 DUMP ORBITAL 15.1 AS ORBITAL   15  occ=    2.0000  eig=   -0.5957  GROUP=   2
 DUMP ORBITAL 16.1 AS ORBITAL   16  occ=    2.0000  eig=   -0.5957  GROUP=   2
 DUMP ORBITAL 17.1 AS ORBITAL   17  occ=    2.0000  eig=   -0.5240  GROUP=   2
 DUMP ORBITAL 18.1 AS ORBITAL   18  occ=    2.0000  eig=   -0.5240  GROUP=   2
 DUMP ORBITAL 19.1 AS ORBITAL   19  occ=    2.0000  eig=   -0.5111  GROUP=   2
 DUMP ORBITAL 20.1 AS ORBITAL   20  occ=    2.0000  eig=   -0.4803  GROUP=   2
 DUMP ORBITAL 21.1 AS ORBITAL   21  occ=    2.0000  eig=   -0.4803  GROUP=   2
 DUMP ORBITAL 22.1 AS ORBITAL   22  occ=    2.0000  eig=   -0.4486  GROUP=   2
 DUMP ORBITAL 23.1 AS ORBITAL   23  occ=    2.0000  eig=   -0.4251  GROUP=   2
 DUMP ORBITAL 24.1 AS ORBITAL   24  occ=    2.0000  eig=   -0.4251  GROUP=   2

 Total charge:      48.000000
 Frequency information read from record  5400.2

 **********************************************************************************************************************************

 HF/6-311G(D,P)//HF/6-311G(D,P) energy=   -234.263576820551

    OPTG(HF-SCF)          HF-SCF
   -234.26357682   -234.25438247
 **********************************************************************************************************************************
 Molpro calculation terminated
