
 Working directory              : /tmp/zwa/molpro.2IlWMVUM88/
 Global scratch directory       : /tmp/zwa/molpro.2IlWMVUM88/
 Wavefunction directory         : /home/zwa/wfu/
 Main file repository           : /tmp/zwa/molpro.2IlWMVUM88/

 id        : liedlgroup

 Nodes     nprocs
 rh2-c724     6
 GA implementation: MPI file
 GA implementation (serial work in mppx): MPI file

 Using customized tuning parameters: mindgm=1; mindgv=20; mindgc=4; mindgr=1; noblas=0; minvec=7
 default implementation of scratch files=sf  


 Variables initialized (1015), CPU time= 0.00 sec
 
  memory,2000, m
  orient,mass
  geometry = {
  C ,                -4.17056132 ,  -0.57986520  ,  0.00000000
  C ,                -2.65367132 ,  -0.57986520  ,  0.00000000
  C ,                -2.07594932 ,   0.82278480  ,  0.00000000
  C,                 -2.98883632 ,   1.80342180 ,   0.70521200
  C,                 -4.32756932 ,   1.92435080  ,  0.00164600
  C ,                -4.73175832 ,   0.64018280 ,  -0.69809900
  H ,                -1.07204832 ,   0.81601680 ,   0.49858600
  H  ,               -2.28902832 ,  -1.13870020 ,   0.90147200
  H ,                -2.27543332 ,  -1.12994820 ,  -0.90137200
  H ,                -4.36061732  ,  0.65750480 ,  -1.75686600
  H ,                -4.54445732 ,  -0.59990920  ,  1.05781200
  H ,                -3.14979832 ,   1.45917680  ,  1.76082100
  H  ,               -2.49715232  ,  2.80944280  ,  0.75404800
  H ,                -4.28439232  ,  2.75264080   ,-0.75327300
  H ,                -5.10997032 ,   2.20738680  ,  0.75367200
  H ,                -5.84975032 ,   0.57035180  , -0.73822700
  H ,                -4.54639032 ,  -1.50829720  , -0.50329800
  H ,                -1.91998932 ,   1.16409580  , -1.05740600
  }
 
  mass, iso
  basis=6-311g(d,p)
 
  {hf
  start,atden}
 
  optg
  {frequencies, symm=auto, print=0,analytical}
  put,molden,cycloboat.molden
 Commands initialized (834), CPU time= 0.00 sec, 672 directives.
 Default parameters read. Elapsed time= 0.12 sec

 Checking input...
 Passed
1


                                         ***  PROGRAM SYSTEM MOLPRO  ***
                                       Copyright, TTI GmbH Stuttgart, 2015
                                    Version 2022.2 linked Thu Sep 29 12:37:28 2022


 **********************************************************************************************************************************
 LABEL *                                                                                 
  (8 PROC) 64 bit mpp version                                                            DATE: 25-Aug-25          TIME: 09:21:30  
 **********************************************************************************************************************************

 SHA1:             51306cdc306ce2a111a2867affebcb289530e0a7
 **********************************************************************************************************************************

 Memory per process:      2000 MW
 Total memory per node:  12000 MW

 GA preallocation disabled
 GA check disabled

 Variable memory set to 2000.0 MW

 ZCENTRE=MASS


 Geometry recognized as XYZ



 Using masses of most abundant isotopes

 **********************************************************************************************************************************
 SETTING BASIS          =    6-311G(D,P)


 Recomputing integrals since basis changed


 Using spherical harmonics

 Library entry C      S 6-311G               selected for orbital group  1
 Library entry C      P 6-311G               selected for orbital group  1
 Library entry C      D 6-311G*              selected for orbital group  1
 Library entry H      S 6-311G               selected for orbital group  2
 Library entry H      P 6-311G**             selected for orbital group  2


 PROGRAM * SEWARD (Integral evaluation for generally contracted gaussian basis sets)     Author: Roland Lindh, 1990

 Geometry written to block  1 of record 700

 Orientation using atomic masses  
 Molecule type: Asymmetric top
 Rotational constants:       2.5786824      4.2210115      4.4810738 GHz

 Point group  C1  



 ATOMIC COORDINATES

 NR  ATOM    CHARGE       X              Y              Z

   1  C       6.00    0.691411148   -2.276053345   -1.258321326
   2  C       6.00   -0.000226791    0.008043441   -2.846212780
   3  C       6.00   -0.694361484    2.281679859   -1.244197743
   4  C       6.00    0.695773064    2.276121536    1.256516945
   5  C       6.00   -0.003004276   -0.005447516    2.845905141
   6  C       6.00   -0.689516726   -2.283867324    1.246389732
   7  H       1.00   -0.248575096    4.060634963   -2.304132310
   8  H       1.00    1.634978762    0.493403119   -4.104233879
   9  H       1.00   -1.633453742   -0.468409861   -4.110496864
  10  H       1.00   -2.778313784   -2.289692450    0.881722368
  11  H       1.00    2.780573584   -2.277625675   -0.895055583
  12  H       1.00    2.783417339    2.269521649    0.886811767
  13  H       1.00    0.250958261    4.050119108    2.324740926
  14  H       1.00   -1.641933108    0.473500052    4.101420387
  15  H       1.00    1.626489330   -0.486920347    4.112646407
  16  H       1.00   -0.230867684   -4.059255898    2.306718162
  17  H       1.00    0.237906985   -4.047773862   -2.327215319
  18  H       1.00   -2.782073082    2.276823794   -0.873878257

 Bond lengths in Bohr (Angstrom)

  1- 2  2.866506661   1- 6  2.860174878   1-11  2.120510353   1-17  2.118299786   2- 3  2.866652701
       ( 1.516890000)       ( 1.513539365)       ( 1.122125754)       ( 1.120955973)       ( 1.516967281)

  2- 8  2.119454718   2- 9  2.119634938   3- 4  2.861132452   3- 7  2.118222853   3-18  2.120306539
       ( 1.121567136)       ( 1.121662504)       ( 1.514046091)       ( 1.120915261)       ( 1.122017901)

  4- 5  2.867054577   4-12  2.120137754   4-13  2.118025040   5- 6  2.867219160   5-14  2.119386001
       ( 1.517179945)       ( 1.121928583)       ( 1.120810583)       ( 1.517267038)       ( 1.121530773)

  5-15  2.119362860   6-10  2.120398398   6-16  2.118173721
       ( 1.121518527)       ( 1.122066510)       ( 1.120889262)

 Bond angles

  1-2-3  112.38573128   1-2-8  108.97279629   1-2-9  109.70710172   1-6-5  111.76239696

  1- 6-10  108.96663785   1- 6-16  109.64062141   2- 1- 6  111.76401014   2- 1-11  109.46331829

  2- 1-17  109.58928780   2- 3- 4  111.66984144   2- 3- 7  109.60298551   2- 3-18  109.52430702

  3- 2- 8  109.68784880   3- 2- 9  108.96777465   3- 4- 5  111.57115169   3- 4-12  109.02718578

  3- 4-13  109.70331462   4- 3- 7  109.67798648   4- 3-18  109.01056508   4- 5- 6  112.42458972

  4- 5-14  109.69670933   4- 5-15  108.94959283   5- 4-12  109.52283594   5- 4-13  109.61824380

  5- 6-10  109.51120270   5- 6-16  109.56909044   6- 1-11  109.00513424   6- 1-17  109.64785849

  6- 5-14  108.95932110   6- 5-15  109.69422460   7- 3-18  107.24966325   8- 2- 9  106.97260561

 10- 6-16  107.28301655  11- 1-17  107.26232193  12- 4-13  107.29850172  14- 5-15  106.96734069

 NUCLEAR CHARGE:                   48
 NUMBER OF PRIMITIVE AOS:         288
 NUMBER OF SYMMETRY AOS:          282
 NUMBER OF CONTRACTIONS:          180   (  180A   )
 NUMBER OF INNER CORE ORBITALS:     0   (    0A   )
 NUMBER OF OUTER CORE ORBITALS:     6   (    6A   )
 NUMBER OF VALENCE ORBITALS:       36   (   36A   )


 NUCLEAR REPULSION ENERGY  257.05357430


 Eigenvalues of metric

         1 0.514E-03 0.173E-02 0.291E-02 0.300E-02 0.478E-02 0.691E-02 0.762E-02 0.130E-01


 Contracted 2-electron integrals neglected if value below      1.0D-11
 AO integral compression algorithm  1   Integral accuracy      1.0D-11

     462.422 MB (compressed) written to integral file ( 40.8%)

     Node minimum: 74.973 MB, node maximum: 80.216 MB


 NUMBER OF SORTED TWO-ELECTRON INTEGRALS:   22121820.     BUFFER LENGTH:  32768
 NUMBER OF SEGMENTS:   2  SEGMENT LENGTH:   15987516      RECORD LENGTH: 524288

 Memory used in sort:      16.54 MW

 SORT1 READ   141702858. AND WROTE    19522323. INTEGRALS IN     57 RECORDS. CPU TIME:     2.35 SEC, REAL TIME:     2.57 SEC
 SORT2 READ   113862377. AND WROTE   132690195. INTEGRALS IN   1836 RECORDS. CPU TIME:     0.35 SEC, REAL TIME:     0.50 SEC

 Node minimum:    22108245.  Node maximum:    22121820. integrals

 OPERATOR DM      FOR CENTER  0  COORDINATES:    0.000000    0.000000    0.000000


 **********************************************************************************************************************************
 DATASETS  * FILE   NREC   LENGTH (MB)   RECORD NAMES
              1      18       30.02       500      610      700      900      950      970     1000      129      960     1100   
                                          VAR    BASINP    GEOM    SYMINP    ZMAT    AOBASIS   BASIS     P2S    ABASIS      S 
                                         1400     1410     1200     1210     1080     1600     1650     1700   
                                           T        V       H0       H01     AOSYM     SMH    MOLCAS    OPER   

 PROGRAMS   *        TOTAL       INT
 CPU TIMES  *         5.03      4.84
 REAL TIME  *         6.07 SEC
 DISK USED  *        30.60 MB (local),        1.87 GB (total)
 GA USED    *         0.00 MB       (max)       0.00 MB       (current)
 **********************************************************************************************************************************


 Program * Restricted Hartree-Fock

 Orbital guess generated from atomic densities.

 Initial occupancy:  24

 NELEC=   48   SYM=1   MS2= 0   THRE=1.0D-08   THRD=1.0D-06   THRG=1.0D-06  HFMA2=F  DIIS_START=2   DIIS_MAX=10   DIIS_INCORE=F

 Level shifts:    0.00 (CLOSED)    0.00 (OPEN)    0.30 (GAP_MIN)

 ITER           ETOT              DE          GRAD        DDIFF     DIIS  NEXP   TIME(IT)  TIME(TOT)  DIAG
   1     -234.15846143    -234.15846143     0.00D+00     0.27D-01     0     0     107.63    201.92    start
   2     -234.22834265      -0.06988122     0.37D-02     0.28D-02     1     0     106.71    308.63    diag
   3     -234.23989433      -0.01155168     0.17D-02     0.14D-02     2     0     106.22    414.85    diag
   4     -234.24185590      -0.00196157     0.57D-03     0.52D-03     3     0     107.25    522.10    diag
   5     -234.24188662      -0.00003072     0.57D-04     0.12D-03     4     0     105.20    627.30    diag
   6     -234.24188744      -0.00000082     0.11D-04     0.18D-04     5     0     106.49    733.79    diag
   7     -234.24188747      -0.00000003     0.21D-05     0.30D-05     6     0     103.77    837.56    diag
   8     -234.24188747      -0.00000000     0.62D-06     0.48D-06     7     0     109.99    947.55    fixocc
   9     -234.24188747      -0.00000000     0.97D-07     0.11D-06     0     0     121.41   1068.96    diag

 Final occupancy:  24

 !RHF STATE 1.1 Energy               -234.241887471461
  RHF One-electron energy            -824.542477094081
  RHF Two-electron energy             333.247015325072
  RHF Kinetic energy                  233.863701658779
  RHF Nuclear energy                  257.053574297549
  RHF Virial quotient                  -1.001617120613

 !RHF STATE 1.1 Dipole moment           0.00017922     0.00014777     0.00008560
 Dipole moment /Debye                   0.00045554     0.00037559     0.00021758

 Orbital energies:

           1.1          2.1          3.1          4.1          5.1          6.1          7.1          8.1          9.1         10.1
    -11.217864   -11.217675   -11.217426   -11.217015   -11.216710   -11.216509    -1.119375    -0.999339    -0.997855    -0.832480

          11.1         12.1         13.1         14.1         15.1         16.1         17.1         18.1         19.1         20.1
     -0.821144    -0.703857    -0.655703    -0.646774    -0.594161    -0.551854    -0.520745    -0.514396    -0.512317    -0.497396

          21.1         22.1         23.1         24.1         25.1         26.1
     -0.484300    -0.424431    -0.424070    -0.420823     0.145598     0.164329


 HOMO     24.1    -0.420823 =     -11.4512eV
 LUMO     25.1     0.145598 =       3.9619eV
 LUMO-HOMO         0.566421 =      15.4131eV

 Orbitals saved in record  2100.2


 **********************************************************************************************************************************
 DATASETS  * FILE   NREC   LENGTH (MB)   RECORD NAMES
              1      18       30.02       500      610      700      900      950      970     1000      129      960     1100   
                                          VAR    BASINP    GEOM    SYMINP    ZMAT    AOBASIS   BASIS     P2S    ABASIS      S 
                                         1400     1410     1200     1210     1080     1600     1650     1700   
                                           T        V       H0       H01     AOSYM     SMH    MOLCAS    OPER   

              2       4        1.15       700     1000      520     2100   
                                         GEOM     BASIS   MCVARS     RHF  

 PROGRAMS   *        TOTAL    HF-SCF       INT
 CPU TIMES  *      1074.19   1069.15      4.84
 REAL TIME  *       418.50 SEC
 DISK USED  *        33.22 MB (local),        1.89 GB (total)
 GA USED    *         0.00 MB       (max)       0.00 MB       (current)
 **********************************************************************************************************************************


 PROGRAM * OPT (Geometry optimization)     Authors: F. Eckert and H.-J. Werner


 BFGS update of hessian

 *** Long output written to logfile /home/zwa/Overlap_Integral_Project/overlap_integral_gaussian/molpro_files/cyclohexane/cycloboat.log ***


 Geometry optimization using default procedure for command HF-SCF

 Geometry written to block  1 of record 700

 Making model hessian for cartesian coordinates

 Entering Rational Function Geometry Optimization

 ITER.   ENERGY(OLD)    ENERGY(NEW)      DE          GRADMAX     GRADNORM    GRADRMS     STEPMAX     STEPLEN     STEPRMS   CPU-time
   1  -234.24188747  -234.25164540    -0.00975792  0.09032757  0.11399156  0.00237482  0.12672880  0.21219381  0.05001456    892.39
   2  -234.25164540  -234.25257935    -0.00093395  0.03392776  0.03914811  0.00081559  0.04139053  0.07059422  0.01663922   1767.16
   3  -234.25257935  -234.25262136    -0.00004201  0.00259326  0.00357255  0.00007443  0.02341448  0.03289255  0.00775285   2530.13
   4  -234.25262136  -234.25264001    -0.00001865  0.00094552  0.00154417  0.00003217  0.03715777  0.03997131  0.00942133   3284.93
   5  -234.25264001  -234.25264874    -0.00000873  0.00064352  0.00100767  0.00002099  0.03505308  0.03633856  0.00856508   3952.17
   6  -234.25264874  -234.25265227    -0.00000353  0.00083631  0.00101275  0.00002110  0.02364471  0.02429032  0.00572528   4726.95
   7  -234.25265227  -234.25265261    -0.00000034  0.00028126  0.00046962  0.00000978  0.00192584  0.00302460  0.00071290   5511.59

 END OF GEOMETRY OPTIMIZATION.

 Geometry written to block  1 of record 700

 Recomputing wavefunction for reoriented structure

 Current geometry (xyz format, in Angstrom)

   18
 HF-SCF000/6-311G(D,P)  ENERGY=-234.25265261
 C          0.3807492742       -1.2228356192       -0.6626375775
 C         -0.0004881684       -0.0004816962       -1.5221446644
 C         -0.3807623421        1.2225425998       -0.6632191751
 C          0.3814354071        1.2225673662        0.6622058937
 C         -0.0007852832        0.0010041219        1.5221811740
 C         -0.3801110373       -1.2227199284        0.6636164340
 H         -0.1904180467        2.1384495403       -1.2150929465
 H          0.8315782617        0.2524164958       -2.1743580824
 H         -0.8330460150       -0.2538781239       -2.1735295615
 H         -1.4482208090       -1.2109796438        0.4554006838
 H          1.4488623395       -1.2093700759       -0.4545701429
 H          1.4493300194        1.2074864710        0.4530333244
 H          0.1924267914        2.1392368571        1.2132777031
 H         -0.8344003878        0.2550993477        2.1719554784
 H          0.8301911056       -0.2512719974        2.1760092245
 H         -0.1880092254       -2.1382574825        1.2154945676
 H          0.1899156382       -2.1391237622       -1.2137194828
 H         -1.4486603489        1.2092774046       -0.4539255864

 **********************************************************************************************************************************


 **********************************************************************************************************************************
 DATASETS  * FILE   NREC   LENGTH (MB)   RECORD NAMES
              1      18       30.02       500      610      700      900      950      970     1000      129      960     1100   
                                          VAR    BASINP    GEOM    SYMINP    ZMAT    AOBASIS   BASIS     P2S    ABASIS      S 
                                         1400     1410     1200     1210     1080     1600     1650     1700   
                                           T        V       H0       H01     AOSYM     SMH    MOLCAS    OPER   

              2       4        1.15       700     1000      520     2100   
                                         GEOM     BASIS   MCVARS     RHF  

 PROGRAMS   *        TOTAL      OPTG    HF-SCF       INT
 CPU TIMES  *      7447.70   6373.52   1069.15      4.84
 REAL TIME  *      2879.45 SEC
 DISK USED  *        33.22 MB (local),        1.90 GB (total)
 SF USED    *         0.07 MB
 GA USED    *         0.00 MB       (max)       0.00 MB       (current)
 **********************************************************************************************************************************


 PROGRAM * HESSIAN

 PROGRAM * MCKINLEY (Hessian of the energy)     Author: A. Bernhardsson, R. Lindh

 Orbitals from record         2100.2

 Number of closed-shell orbitals: 24 ( 24 )
 Number of occupied orbitals:     24 ( 24 )

 Number of electrons= 48     Singlet     Space symmetry=1      Wavefunction type: CLOSED          


 McKinley needed   2492.96 seconds of CPU time

 Entering CPHF calculation

 CPHF needed 442 iterations for 54 perturbations.  Total CPU time: 9187.65 sec


 HF-SCF hessian saved to record  5300.2

 PROGRAM * FREQUENCIES (Calculation of harmonic vibrational spectra for HF-SCF)


 Permanent Dipole Moment [debye]
   1-  3    0.000000    0.000000    0.000000

 Dipole Moment Norm    0.0000000 [debye]

 Dipole Moment Derivatives [debye/ang]
              1             2             3             4             5             6             7             8
    1    0.00000000    0.00000000    0.00000000    0.00000000    0.00000000    0.00000000    0.00000000    0.00000000
    2    0.00000000    0.00000000    0.00000000    0.00000000    0.00000000    0.00000000    0.00000000    0.00000000
    3    0.00000000    0.00000000    0.00000000    0.00000000    0.00000000    0.00000000    0.00000000    0.00000000
              9            10            11            12            13            14            15            16
    1    0.00000000    0.00000000    0.00000000    0.00000000    0.00000000    0.00000000    0.00000000    0.00000000
    2    0.00000000    0.00000000    0.00000000    0.00000000    0.00000000    0.00000000    0.00000000    0.00000000
    3    0.00000000    0.00000000    0.00000000    0.00000000    0.00000000    0.00000000    0.00000000    0.00000000
             17            18            19            20            21            22            23            24
    1    0.00000000    0.00000000    0.00000000    0.00000000    0.00000000    0.00000000    0.00000000    0.00000000
    2    0.00000000    0.00000000    0.00000000    0.00000000    0.00000000    0.00000000    0.00000000    0.00000000
    3    0.00000000    0.00000000    0.00000000    0.00000000    0.00000000    0.00000000    0.00000000    0.00000000
             25            26            27            28            29            30            31            32
    1    0.00000000    0.00000000    0.00000000    0.00000000    0.00000000    0.00000000    0.00000000    0.00000000
    2    0.00000000    0.00000000    0.00000000    0.00000000    0.00000000    0.00000000    0.00000000    0.00000000
    3    0.00000000    0.00000000    0.00000000    0.00000000    0.00000000    0.00000000    0.00000000    0.00000000
             33            34            35            36            37            38            39            40
    1    0.00000000    0.00000000    0.00000000    0.00000000    0.00000000    0.00000000    0.00000000    0.00000000
    2    0.00000000    0.00000000    0.00000000    0.00000000    0.00000000    0.00000000    0.00000000    0.00000000
    3    0.00000000    0.00000000    0.00000000    0.00000000    0.00000000    0.00000000    0.00000000    0.00000000
             41            42            43            44            45            46            47            48
    1    0.00000000    0.00000000    0.00000000    0.00000000    0.00000000    0.00000000    0.00000000    0.00000000
    2    0.00000000    0.00000000    0.00000000    0.00000000    0.00000000    0.00000000    0.00000000    0.00000000
    3    0.00000000    0.00000000    0.00000000    0.00000000    0.00000000    0.00000000    0.00000000    0.00000000
             49            50            51            52            53            54
    1    0.00000000    0.00000000    0.00000000    0.00000000    0.00000000    0.00000000
    2    0.00000000    0.00000000    0.00000000    0.00000000    0.00000000    0.00000000
    3    0.00000000    0.00000000    0.00000000    0.00000000    0.00000000    0.00000000

 Projecting out rotations and translations

 Force Constants (Second Derivatives of the Energy) in [a.u.]
                             CX1         CY1         CZ1         CX2         CY2     
           CX1           0.6211611
           CY1           0.0182090   0.6011683
           CZ1           0.0282380   0.0652836   0.5481281
           CX2          -0.1016336   0.0250344  -0.0150703   0.6459881
           CY2           0.0235546  -0.1605884   0.0490726   0.0432893   0.5075580
           CZ2          -0.0191139   0.0481209  -0.1302157  -0.0000058   0.0000594
           CX3          -0.0011269   0.0048855   0.0038289  -0.1015833   0.0235071
           CY3           0.0048701  -0.0285851  -0.0142289   0.0250135  -0.1606911
           CZ3          -0.0038173   0.0142507   0.0165108   0.0150401  -0.0490875
           CX4           0.0038611   0.0000833   0.0001776   0.0069314  -0.0032124
           CY4          -0.0000872  -0.0002863   0.0004654  -0.0188807  -0.0003692
           CZ4          -0.0001813   0.0004643   0.0014697  -0.0113786  -0.0065687
           CX5           0.0069256   0.0188566   0.0113181   0.0003033  -0.0004689
           CY5           0.0032142  -0.0003406  -0.0065489   0.0004694  -0.0003564
           CZ5          -0.0064049  -0.0283516  -0.0203600   0.0000008  -0.0000003
           CX6          -0.1298139  -0.0013960   0.0539321   0.0069609  -0.0032044
           CY6           0.0013857  -0.0950935  -0.0016667  -0.0188374  -0.0003323
           CZ6           0.0539139   0.0016652  -0.1840044   0.0113433   0.0065457
           HX7           0.0002052   0.0019803   0.0018210   0.0005696   0.0107156
           HY7           0.0000194  -0.0028911  -0.0049495  -0.0047266  -0.0225444
           HZ7           0.0003139  -0.0028877  -0.0027273  -0.0023610  -0.0194283
           HX8           0.0080065   0.0035426  -0.0090788  -0.2203088  -0.0517344
           HY8          -0.0231197  -0.0050047   0.0184768  -0.0519882  -0.0720460
           HZ8           0.0164062   0.0047555  -0.0130382   0.1218111   0.0361988
           HX9          -0.0072323  -0.0015532  -0.0038039  -0.2205047  -0.0518563
           HY9           0.0262850   0.0052977   0.0178089  -0.0521057  -0.0721125
           HZ9          -0.0164885  -0.0058826  -0.0104333  -0.1217283  -0.0362229
           HX10         -0.0200838   0.0007001  -0.0034252   0.0005321   0.0005298
           HY10         -0.0000203   0.0003995   0.0003843  -0.0006963   0.0000844
           HZ10          0.0359162  -0.0009106   0.0070219  -0.0001582  -0.0002221
           HX11         -0.3152228  -0.0043468  -0.0510722  -0.0072344  -0.0018952
           HY11         -0.0074752  -0.0603565  -0.0031182   0.0293238   0.0014445
           HZ11         -0.0511722  -0.0032646  -0.0673541  -0.0211684  -0.0003924
           HX12         -0.0010914   0.0001939   0.0002316   0.0005315   0.0005354
           HY12         -0.0001076  -0.0004319  -0.0001212  -0.0006987   0.0000855
           HZ12          0.0006023  -0.0004301   0.0000006   0.0001538   0.0002221
           HX13         -0.0008197   0.0004363   0.0000964  -0.0019857   0.0008777
           HY13         -0.0001357   0.0008266   0.0006652   0.0001198   0.0007638
           HZ13         -0.0001527   0.0008623  -0.0002242  -0.0057933   0.0015079
           HX14          0.0001366  -0.0015798  -0.0012869   0.0000192  -0.0001829
           HY14         -0.0024285  -0.0053581  -0.0016809  -0.0000137  -0.0002792
           HZ14         -0.0019299  -0.0044078  -0.0013493   0.0000545  -0.0002942
           HX15          0.0000881  -0.0004834  -0.0000335   0.0000204  -0.0001823
           HY15         -0.0007837  -0.0002493   0.0008855  -0.0000131  -0.0002812
           HZ15         -0.0011373  -0.0001286   0.0003840  -0.0000528   0.0002919
           HX16          0.0052926  -0.0181022   0.0102855  -0.0019767   0.0008754
           HY16         -0.0002523   0.0024660  -0.0023845   0.0001165   0.0007639
           HZ16         -0.0097685   0.0283286  -0.0157313   0.0057865  -0.0015155
           HX17         -0.0688628  -0.0465108  -0.0266395   0.0005767   0.0107436
           HY17         -0.0431633  -0.2515293  -0.1176497  -0.0047385  -0.0225431
           HZ17         -0.0248923  -0.1174095  -0.1277094   0.0023733   0.0194412
           HX18          0.0002103   0.0000501   0.0004812  -0.0072060  -0.0018917
           HY18          0.0000357   0.0005567  -0.0006937   0.0293321   0.0014437
           HZ18         -0.0003315  -0.0000579  -0.0003680   0.0211533   0.0003922
                             CZ2         CX3         CY3         CZ3         CX4     
           CZ2           0.5991759
           CX3           0.0190633   0.6210584
           CY3          -0.0481416   0.0180812   0.6010940
           CZ3          -0.1301874  -0.0283400  -0.0654275   0.5483799
           CX4           0.0063978  -0.1299191  -0.0014227  -0.0539986   0.6210593
           CY4          -0.0283621   0.0014329  -0.0950883   0.0016819  -0.0181405
           CZ4          -0.0204125  -0.0540152  -0.0016742  -0.1839557  -0.0282366
           CX5          -0.0000036   0.0069728   0.0188626  -0.0114013  -0.1016877
           CY5           0.0000007   0.0032035  -0.0003572   0.0065658  -0.0236046
           CZ5           0.0015940   0.0064349   0.0283505  -0.0204615   0.0191593
           CX6          -0.0064377   0.0038379   0.0000929  -0.0001756  -0.0011283
           CY6           0.0283477  -0.0000887  -0.0002776  -0.0004717  -0.0048462
           CZ6          -0.0204185   0.0001725  -0.0004723   0.0014706   0.0037908
           HX7          -0.0050336  -0.0688362  -0.0463880   0.0266086   0.0052812
           HY7           0.0160317  -0.0430463  -0.2513767   0.1177779   0.0002540
           HZ7           0.0121422   0.0248648   0.1175396  -0.1279219   0.0097309
           HX8           0.1244037  -0.0072175  -0.0015453   0.0038063   0.0000914
           HY8           0.0377175   0.0262853   0.0052827  -0.0178511   0.0007820
           HZ8          -0.1531674   0.0164712   0.0058658  -0.0104473   0.0011422
           HX9          -0.1243143   0.0080024   0.0035430   0.0090569   0.0001283
           HY9          -0.0377402  -0.0231483  -0.0050138  -0.0184546   0.0024338
           HZ9          -0.1529271  -0.0164053  -0.0047591  -0.0130102   0.0019352
           HX10         -0.0006134  -0.0010867   0.0001901  -0.0002287   0.0002145
           HY10         -0.0001734  -0.0001136  -0.0004221   0.0001172  -0.0000353
           HZ10          0.0021263  -0.0006026   0.0004286   0.0000020   0.0003280
           HX11         -0.0009723   0.0002136   0.0000495  -0.0004841  -0.0010933
           HY11          0.0074403   0.0000369   0.0005553   0.0006944   0.0001095
           HZ11         -0.0069913   0.0003294   0.0000569  -0.0003695  -0.0006042
           HX12          0.0006179  -0.0201091   0.0007462   0.0034478  -0.3150469
           HY12          0.0001690  -0.0000162   0.0003977  -0.0003949   0.0078730
           HZ12          0.0021260  -0.0358727   0.0009930   0.0070527   0.0514177
           HX13         -0.0032468   0.0052493  -0.0181339  -0.0102585  -0.0687038
           HY13          0.0006677  -0.0002492   0.0024879   0.0023979   0.0427969
           HZ13         -0.0046790   0.0096848  -0.0283397  -0.0156828   0.0246565
           HX14         -0.0000294   0.0000943  -0.0004774   0.0000281  -0.0072807
           HY14          0.0002502  -0.0007766  -0.0002266  -0.0009054  -0.0263132
           HZ14          0.0006965   0.0011447   0.0001018   0.0004006   0.0165364
           HX15          0.0000253   0.0001199  -0.0015985   0.0012953   0.0080314
           HY15         -0.0002462  -0.0024443  -0.0053553   0.0017067   0.0231016
           HZ15          0.0007028   0.0019478   0.0044257  -0.0013571  -0.0164040
           HX16          0.0032502  -0.0008180   0.0004331  -0.0000950   0.0002017
           HY16         -0.0006630  -0.0001343   0.0008255  -0.0006653  -0.0000111
           HZ16         -0.0046855   0.0001537  -0.0008656  -0.0002216  -0.0003056
           HX17          0.0050405   0.0002016   0.0019825  -0.0018273  -0.0008208
           HY17         -0.0160019   0.0000230  -0.0028868   0.0049474   0.0001353
           HZ17          0.0121284  -0.0003159   0.0028857  -0.0027312   0.0001537
           HX18          0.0009719  -0.3150535  -0.0042988   0.0513434  -0.0201197
           HY18         -0.0074768  -0.0074378  -0.0603625   0.0031180   0.0000165
           HZ18         -0.0070077   0.0514557   0.0032613  -0.0674705  -0.0358771
                             CY4         CZ4         CX5         CY5         CZ5     
           CY4           0.6013423
           CZ4           0.0654044   0.5483061
           CX5          -0.0251229   0.0151643   0.6459833
           CY5          -0.1605764   0.0491209  -0.0432979   0.5075581
           CZ5           0.0481574  -0.1303130   0.0002267  -0.0000814   0.5991704
           CX6          -0.0049148  -0.0038583  -0.1015356  -0.0234613  -0.0190189
           CY6          -0.0285911  -0.0142114  -0.0249289  -0.1606956  -0.0481070
           CZ6           0.0142715   0.0165080  -0.0149485  -0.0490416  -0.1300925
           HX7           0.0181254  -0.0102782  -0.0019890  -0.0008747  -0.0032468
           HY7           0.0024839  -0.0023986  -0.0001181   0.0007633  -0.0006660
           HZ7           0.0283105  -0.0157051  -0.0057989  -0.0015060  -0.0046850
           HX8           0.0004798   0.0000309   0.0000193   0.0001837  -0.0000273
           HY8          -0.0002382   0.0008974   0.0000145  -0.0002804  -0.0002492
           HZ8          -0.0001164   0.0003938   0.0000527   0.0002941   0.0007003
           HX9           0.0015888   0.0012896   0.0000203   0.0001816   0.0000275
           HY9          -0.0053607  -0.0016960   0.0000123  -0.0002801   0.0002473
           HZ9          -0.0044184  -0.0013526  -0.0000551  -0.0002918   0.0006989
           HX10         -0.0000551  -0.0004848  -0.0071842   0.0018899  -0.0009588
           HY10          0.0005439  -0.0007069  -0.0293471   0.0013886  -0.0074556
           HZ10         -0.0000628  -0.0003751  -0.0211266   0.0003480  -0.0069903
           HX11         -0.0001955  -0.0002285   0.0005283  -0.0005301  -0.0006085
           HY11         -0.0004296  -0.0001195   0.0006934   0.0000852   0.0001742
           HZ11         -0.0004312   0.0000020  -0.0001623   0.0002223   0.0021228
           HX12          0.0047267   0.0513053  -0.0072587   0.0018980   0.0009868
           HY12         -0.0603897  -0.0031954  -0.0293082   0.0015018   0.0074622
           HZ12         -0.0033368  -0.0674607   0.0211963  -0.0004381  -0.0070096
           HX13          0.0461384   0.0263942   0.0005615  -0.0107595  -0.0050510
           HY13         -0.2517073  -0.1176982   0.0046957  -0.0225458  -0.0160033
           HZ13         -0.1174596  -0.1277140  -0.0023435   0.0194658   0.0121504
           HX14          0.0015673   0.0038246  -0.2208853   0.0520477   0.1241484
           HY14          0.0053117   0.0177715   0.0523055  -0.0721776  -0.0377366
           HZ14         -0.0058874  -0.0104292   0.1215476  -0.0362162  -0.1524406
           HX15         -0.0035334   0.0091110  -0.2199209   0.0515551  -0.1245636
           HY15         -0.0049699   0.0184950   0.0518015  -0.0719912   0.0377333
           HZ15          0.0047357  -0.0130677  -0.1219861   0.0362162  -0.1536556
           HX16         -0.0019797  -0.0018136   0.0005849  -0.0107018   0.0050233
           HY16         -0.0028996  -0.0049455   0.0047670  -0.0225453   0.0160297
           HZ16         -0.0028846  -0.0027204   0.0023888  -0.0194056   0.0121200
           HX17         -0.0004366  -0.0000958  -0.0019734  -0.0008783   0.0032496
           HY17          0.0008261   0.0006653  -0.0001183   0.0007647   0.0006648
           HZ17          0.0008644  -0.0002241   0.0057812   0.0015170  -0.0046782
           HX18         -0.0007130   0.0034511   0.0005355  -0.0005350   0.0006225
           HY18          0.0003984   0.0003958   0.0007012   0.0000848  -0.0001683
           HZ18         -0.0009319   0.0070509   0.0001501  -0.0002215   0.0021295
                             CX6         CY6         CZ6         HX7         HY7     
           CX6           0.6211581
           CY6          -0.0181458   0.6009348
           CZ6           0.0283393  -0.0653101   0.5482128
           HX7          -0.0008171  -0.0004330   0.0000957   0.0685150
           HY7           0.0001353   0.0008258  -0.0006652   0.0467102   0.2719440
           HZ7          -0.0001530  -0.0008634  -0.0002219  -0.0293954  -0.1270804
           HX8           0.0001277   0.0015889  -0.0012926   0.0010904   0.0008745
           HY8           0.0024384  -0.0053538   0.0016924   0.0001938   0.0020448
           HZ8          -0.0019421   0.0044155  -0.0013548  -0.0006510   0.0002222
           HX9           0.0000910   0.0004808  -0.0000310   0.0000069  -0.0001618
           HY9           0.0007784  -0.0002383  -0.0008942   0.0000269  -0.0006834
           HZ9          -0.0011399   0.0001143   0.0003914   0.0001570  -0.0008048
           HX10         -0.3152203   0.0039381  -0.0511151   0.0005393  -0.0000122
           HY10          0.0070586  -0.0603317   0.0030451   0.0001405   0.0001116
           HZ10         -0.0512160   0.0031934  -0.0673654   0.0001151  -0.0000366
           HX11         -0.0200714  -0.0007308  -0.0034219  -0.0000315   0.0002985
           HY11          0.0000226   0.0003985  -0.0003834  -0.0000366  -0.0001771
           HZ11          0.0359117   0.0009696   0.0070253  -0.0000782   0.0001249
           HX12          0.0002090  -0.0000444   0.0004805   0.0005807   0.0006388
           HY12         -0.0000363   0.0005684   0.0006812   0.0003415  -0.0000674
           HZ12         -0.0003332   0.0000521  -0.0003627   0.0010398   0.0002957
           HX13          0.0002044  -0.0019833   0.0018351   0.0007136   0.0003031
           HY13         -0.0000316  -0.0028792   0.0049517  -0.0003020   0.0009773
           HZ13          0.0003247   0.0028892  -0.0027385   0.0010117   0.0006281
           HX14          0.0079810  -0.0035526  -0.0090266   0.0001101   0.0000151
           HY14          0.0231652  -0.0050476  -0.0184319   0.0002311   0.0000661
           HZ14          0.0164059  -0.0047758  -0.0129788  -0.0004683   0.0000884
           HX15         -0.0071712   0.0015326  -0.0037872   0.0003724  -0.0001208
           HY15         -0.0262551   0.0052707  -0.0178873   0.0007393   0.0000753
           HZ15         -0.0164226   0.0058617  -0.0104514  -0.0006900  -0.0000188
           HX16         -0.0689892   0.0467440  -0.0268440   0.0002648   0.0000764
           HY16          0.0433953  -0.2512030   0.1177298  -0.0000761  -0.0000423
           HZ16         -0.0250903   0.1174899  -0.1279142   0.0000736   0.0000982
           HX17          0.0052622   0.0181094   0.0102641  -0.0001302   0.0005554
           HY17          0.0002476   0.0024698   0.0023847   0.0005537  -0.0013825
           HZ17         -0.0097270  -0.0283547  -0.0157054  -0.0003482   0.0009800
           HX18         -0.0010851  -0.0001883   0.0002317  -0.0064451  -0.0016949
           HY18          0.0001113  -0.0004242   0.0001187  -0.0316479  -0.0001271
           HZ18          0.0006010   0.0004273   0.0000006   0.0192670   0.0003727
                             HZ7         HX8         HY8         HZ8         HX9     
           HZ7           0.1394385
           HX8          -0.0004628   0.2365735
           HY8           0.0003878   0.0520445   0.0803419
           HZ8           0.0019663  -0.1359223  -0.0429443   0.1624026
           HX9          -0.0005570  -0.0227385  -0.0072707  -0.0167253   0.2367883
           HY9           0.0003508  -0.0072618  -0.0023329  -0.0054677   0.0521859
           HZ9          -0.0003301   0.0167593   0.0054868   0.0153066   0.1358327
           HX10          0.0000348   0.0003568   0.0000681  -0.0000640   0.0002239
           HY10         -0.0000198   0.0001329  -0.0000047  -0.0000910   0.0000047
           HZ10          0.0000644  -0.0002725  -0.0004302   0.0002953  -0.0004115
           HX11          0.0001354   0.0022281   0.0003004  -0.0003202   0.0010215
           HY11         -0.0000721  -0.0003037   0.0020683  -0.0006996   0.0020334
           HZ11          0.0000586  -0.0000169  -0.0003713   0.0008469  -0.0012227
           HX12         -0.0003711   0.0002239  -0.0005137  -0.0007748   0.0003576
           HY12         -0.0002454   0.0000046   0.0001732  -0.0000018   0.0001325
           HZ12          0.0014020   0.0004112   0.0000401  -0.0002566   0.0002721
           HX13          0.0010103   0.0001085  -0.0002337  -0.0004683   0.0003692
           HY13         -0.0006298  -0.0000157   0.0000663  -0.0000883   0.0001201
           HZ13          0.0007105   0.0002535  -0.0000277  -0.0000926   0.0004029
           HX14          0.0002528  -0.0000147  -0.0000186  -0.0000278   0.0000543
           HY14          0.0000235   0.0000179   0.0000732  -0.0001532  -0.0000013
           HZ14         -0.0000884  -0.0000280   0.0001534   0.0000379  -0.0000651
           HX15          0.0004066   0.0000542   0.0000010  -0.0000651  -0.0000147
           HY15          0.0017800  -0.0000015   0.0001298   0.0000273   0.0000177
           HZ15         -0.0014207   0.0000653   0.0000274  -0.0000570   0.0000272
           HX16         -0.0000739   0.0003682  -0.0007378   0.0006878   0.0001090
           HY16          0.0000981   0.0001211   0.0000744  -0.0000171  -0.0000159
           HZ16          0.0001042  -0.0004041   0.0017783  -0.0014191  -0.0002538
           HX17          0.0003486   0.0000073   0.0000264  -0.0001574   0.0010904
           HY17         -0.0009791  -0.0001609  -0.0006824   0.0008052   0.0008749
           HZ17          0.0006992   0.0005570  -0.0003511  -0.0003305   0.0004624
           HX18          0.0020749   0.0010237   0.0017281   0.0005468   0.0022272
           HY18          0.0052217   0.0020327  -0.0043115  -0.0030050  -0.0003041
           HZ18         -0.0034855   0.0012179  -0.0044327  -0.0017862   0.0000133
                             HY9         HZ9         HX10        HY10        HZ10    
           HY9           0.0804046
           HZ9           0.0429692   0.1621265
           HX10         -0.0005131   0.0007741   0.3436159
           HY10          0.0001730   0.0000042  -0.0072139   0.0605049
           HZ10         -0.0000385  -0.0002563   0.0543660   0.0011244   0.0746818
           HX11          0.0017332  -0.0005518  -0.0005234  -0.0004322   0.0044231
           HY11         -0.0043054   0.0030039   0.0004336   0.0010264   0.0001822
           HZ11          0.0044314  -0.0017888   0.0044240  -0.0001824  -0.0063919
           HX12          0.0000694   0.0000649   0.0001050   0.0001287  -0.0000903
           HY12         -0.0000049   0.0000918   0.0001312   0.0000627  -0.0000969
           HZ12          0.0004308   0.0002951   0.0000882   0.0000962   0.0000328
           HX13         -0.0007399  -0.0006876  -0.0000319   0.0000362  -0.0000790
           HY13          0.0000751   0.0000183  -0.0002990  -0.0001807  -0.0001255
           HZ13         -0.0017791  -0.0014180   0.0001364   0.0000750   0.0000598
           HX14          0.0000017   0.0000652   0.0022346   0.0002990  -0.0000188
           HY14          0.0001289  -0.0000277  -0.0002998   0.0020706   0.0003657
           HZ14         -0.0000275  -0.0000575  -0.0003178   0.0006951   0.0008490
           HX15         -0.0000170   0.0000274   0.0010238  -0.0020253  -0.0012142
           HY15          0.0000734   0.0001530  -0.0017249  -0.0043099  -0.0044246
           HZ15         -0.0001529   0.0000375  -0.0005404  -0.0029956  -0.0017803
           HX16         -0.0002346   0.0004692  -0.0065113   0.0316437  -0.0192817
           HY16          0.0000659   0.0000889   0.0016863  -0.0000810   0.0003445
           HZ16          0.0000279  -0.0000931  -0.0020793   0.0051835  -0.0034649
           HX17          0.0001928   0.0006518   0.0005852   0.0003449  -0.0010395
           HY17          0.0020439  -0.0002227   0.0006428  -0.0000633  -0.0002941
           HZ17         -0.0003872   0.0019651   0.0003684   0.0002465   0.0014112
           HX18          0.0003012   0.0003196   0.0012107   0.0000949   0.0003626
           HY18          0.0020695   0.0006996  -0.0000921  -0.0009721   0.0006550
           HZ18          0.0003716   0.0008462  -0.0003644   0.0006536   0.0000798
                             HX11        HY11        HZ11        HX12        HY12    
           HX11          0.3436212
           HY11          0.0076717   0.0605290
           HZ11          0.0543390  -0.0010216   0.0746716
           HX12          0.0012215  -0.0000908   0.0003649   0.3434547
           HY12          0.0000878  -0.0009825  -0.0006614  -0.0080823   0.0605466
           HZ12         -0.0003669  -0.0006600   0.0000811  -0.0546135  -0.0009036
           HX13          0.0005428  -0.0001394   0.0001157  -0.0063959   0.0316722
           HY13          0.0000114   0.0001122   0.0000366   0.0017059  -0.0001819
           HZ13          0.0000343   0.0000204   0.0000643   0.0020653  -0.0052266
           HX14          0.0003552  -0.0001329  -0.0002731   0.0010211  -0.0020411
           HY14         -0.0000662  -0.0000048   0.0004294  -0.0017368  -0.0043066
           HZ14         -0.0000645   0.0000917   0.0002940   0.0005584   0.0030132
           HX15          0.0002199  -0.0000043  -0.0004093   0.0022206   0.0003093
           HY15          0.0005130   0.0001730   0.0000382  -0.0003017   0.0020675
           HZ15          0.0007707  -0.0000032  -0.0002561   0.0003218  -0.0007040
           HX16          0.0005868  -0.0003448  -0.0010404  -0.0000311   0.0000369
           HY16         -0.0006414  -0.0000648   0.0002939  -0.0002978  -0.0001734
           HZ16          0.0003698  -0.0002446   0.0014118  -0.0001343  -0.0000693
           HX17         -0.0064672  -0.0316675  -0.0192483   0.0005430   0.0001384
           HY17         -0.0016975  -0.0001342  -0.0003747  -0.0000114   0.0001123
           HZ17         -0.0020708  -0.0051884  -0.0034594  -0.0000347   0.0000209
           HX18          0.0001050  -0.0001298  -0.0000889  -0.0005355  -0.0004372
           HY18         -0.0001300   0.0000626   0.0000966   0.0004359   0.0010227
           HZ18          0.0000896  -0.0000966   0.0000328  -0.0044265   0.0001822
                             HZ12        HX13        HY13        HZ13        HX14    
           HZ12          0.0747898
           HX13          0.0192329   0.0683819
           HY13         -0.0004031  -0.0464380   0.2723076
           HZ13         -0.0034807  -0.0291620   0.1270040   0.1392026
           HX14          0.0012268   0.0010849  -0.0008744  -0.0004641   0.2372270
           HY14          0.0044396  -0.0001925   0.0020423  -0.0003918  -0.0523747
           HZ14         -0.0017948  -0.0006530  -0.0002238   0.0019620  -0.1356409
           HX15          0.0000111   0.0000060   0.0001659  -0.0005577  -0.0227389
           HY15         -0.0003774  -0.0000226  -0.0006727  -0.0003594   0.0072722
           HZ15          0.0008438   0.0001584   0.0008019  -0.0003238   0.0166524
           HX16          0.0000780  -0.0001303  -0.0005528   0.0003472   0.0000083
           HY16          0.0001243  -0.0005563  -0.0013826   0.0009820   0.0001567
           HZ16          0.0000572  -0.0003496  -0.0009771   0.0006991   0.0005563
           HX17         -0.0001166   0.0002663  -0.0000769  -0.0000740   0.0003652
           HY17          0.0000370   0.0000767  -0.0000429  -0.0000983  -0.0001203
           HZ17          0.0000641   0.0000738  -0.0000984   0.0001041  -0.0004005
           HX18         -0.0044272   0.0005790  -0.0006404  -0.0003699   0.0002279
           HY18         -0.0001819  -0.0003415  -0.0000660   0.0002474  -0.0000051
           HZ18         -0.0063799   0.0010390  -0.0002959   0.0014011   0.0004135
                             HY14        HZ14        HX15        HY15        HZ15    
           HY14          0.0804860
           HZ14          0.0429662   0.1616022
           HX15          0.0072623  -0.0168314   0.2361266
           HY15         -0.0023329   0.0055115  -0.0518706   0.0802649
           HZ15         -0.0054435   0.0153056   0.1361067  -0.0429547   0.1629284
           HX16         -0.0000307  -0.0001560   0.0010958  -0.0001939   0.0006497
           HY16         -0.0006931  -0.0008080  -0.0008748   0.0020466   0.0002207
           HZ16          0.0003424  -0.0003364   0.0004613   0.0003828   0.0019690
           HX17          0.0007383   0.0006854   0.0001073   0.0002372   0.0004690
           HY17          0.0000744   0.0000166   0.0000164   0.0000660  -0.0000888
           HZ17         -0.0017771  -0.0014159  -0.0002543  -0.0000322  -0.0000974
           HX18          0.0005138  -0.0007780   0.0003591  -0.0000711   0.0000643
           HY18          0.0001732   0.0000028  -0.0001325  -0.0000048  -0.0000912
           HZ18         -0.0000404  -0.0002567   0.0002714  -0.0004315   0.0002962
                             HX16        HY16        HZ16        HX17        HY17    
           HX16          0.0686979
           HY16         -0.0470927   0.2717577
           HZ16          0.0296402  -0.1270194   0.1394529
           HX17          0.0007073  -0.0003026  -0.0010094   0.0685734
           HY17          0.0003015   0.0009731  -0.0006296   0.0468401   0.2721108
           HZ17         -0.0010107   0.0006278   0.0007080   0.0294200   0.1269429
           HX18          0.0005393   0.0000123  -0.0000353  -0.0000315   0.0002982
           HY18         -0.0001398   0.0001118  -0.0000203  -0.0000364  -0.0001768
           HZ18         -0.0001159  -0.0000369   0.0000643   0.0000788  -0.0001250
                             HZ17        HX18        HY18        HZ18    
           HZ17          0.1392131
           HX18         -0.0001354   0.3434586
           HY18          0.0000722   0.0076018   0.0605215
           HZ18          0.0000585  -0.0546351   0.0010093   0.0747947


 Atomic Masses
   1- 10   12.000000   12.000000   12.000000   12.000000   12.000000   12.000000    1.007825    1.007825    1.007825    1.007825
  11- 18    1.007825    1.007825    1.007825    1.007825    1.007825    1.007825    1.007825    1.007825

 Mass weighted Second Derivative Matrix
                             CX1         CY1         CZ1         CX2         CY2     
           CX1           0.0517634
           CY1           0.0015174   0.0500974
           CZ1           0.0023532   0.0054403   0.0456773
           CX2          -0.0084695   0.0020862  -0.0012559   0.0538323
           CY2           0.0019629  -0.0133824   0.0040894   0.0036074   0.0422965
           CZ2          -0.0015928   0.0040101  -0.0108513  -0.0000005   0.0000050
           CX3          -0.0000939   0.0004071   0.0003191  -0.0084653   0.0019589
           CY3           0.0004058  -0.0023821  -0.0011857   0.0020845  -0.0133909
           CZ3          -0.0003181   0.0011876   0.0013759   0.0012533  -0.0040906
           CX4           0.0003218   0.0000069   0.0000148   0.0005776  -0.0002677
           CY4          -0.0000073  -0.0000239   0.0000388  -0.0015734  -0.0000308
           CZ4          -0.0000151   0.0000387   0.0001225  -0.0009482  -0.0005474
           CX5           0.0005771   0.0015714   0.0009432   0.0000253  -0.0000391
           CY5           0.0002679  -0.0000284  -0.0005457   0.0000391  -0.0000297
           CZ5          -0.0005337  -0.0023626  -0.0016967   0.0000001  -0.0000000
           CX6          -0.0108178  -0.0001163   0.0044943   0.0005801  -0.0002670
           CY6           0.0001155  -0.0079245  -0.0001389  -0.0015698  -0.0000277
           CZ6           0.0044928   0.0001388  -0.0153337   0.0009453   0.0005455
           HX7           0.0000590   0.0005694   0.0005236   0.0001638   0.0030813
           HY7           0.0000056  -0.0008313  -0.0014232  -0.0013592  -0.0064827
           HZ7           0.0000903  -0.0008304  -0.0007842  -0.0006789  -0.0055867
           HX8           0.0023023   0.0010187  -0.0026106  -0.0633503  -0.0148763
           HY8          -0.0066481  -0.0014391   0.0053130  -0.0149493  -0.0207170
           HZ8           0.0047176   0.0013674  -0.0037492   0.0350271   0.0104090
           HX9          -0.0020797  -0.0004466  -0.0010938  -0.0634066  -0.0149114
           HY9           0.0075583   0.0015234   0.0051210  -0.0149831  -0.0207361
           HZ9          -0.0047413  -0.0016916  -0.0030001  -0.0350033  -0.0104160
           HX10         -0.0057751   0.0002013  -0.0009849   0.0001530   0.0001523
           HY10         -0.0000058   0.0001149   0.0001105  -0.0002002   0.0000243
           HZ10          0.0103278  -0.0002618   0.0020192  -0.0000455  -0.0000639
           HX11         -0.0906430  -0.0012499  -0.0146859  -0.0020803  -0.0005450
           HY11         -0.0021495  -0.0173556  -0.0008967   0.0084321   0.0004154
           HZ11         -0.0147147  -0.0009387  -0.0193678  -0.0060870  -0.0001128
           HX12         -0.0003138   0.0000558   0.0000666   0.0001528   0.0001540
           HY12         -0.0000309  -0.0001242  -0.0000349  -0.0002009   0.0000246
           HZ12          0.0001732  -0.0001237   0.0000002   0.0000442   0.0000639
           HX13         -0.0002357   0.0001255   0.0000277  -0.0005710   0.0002524
           HY13         -0.0000390   0.0002377   0.0001913   0.0000345   0.0002196
           HZ13         -0.0000439   0.0002479  -0.0000645  -0.0016659   0.0004336
           HX14          0.0000393  -0.0004543  -0.0003701   0.0000055  -0.0000526
           HY14         -0.0006983  -0.0015407  -0.0004834  -0.0000039  -0.0000803
           HZ14         -0.0005549  -0.0012675  -0.0003880   0.0000157  -0.0000846
           HX15          0.0000253  -0.0001390  -0.0000096   0.0000059  -0.0000524
           HY15         -0.0002254  -0.0000717   0.0002546  -0.0000038  -0.0000809
           HZ15         -0.0003270  -0.0000370   0.0001104  -0.0000152   0.0000839
           HX16          0.0015219  -0.0052053   0.0029576  -0.0005684   0.0002517
           HY16         -0.0000726   0.0007091  -0.0006857   0.0000335   0.0002196
           HZ16         -0.0028090   0.0081460  -0.0045236   0.0016639  -0.0004358
           HX17         -0.0198017  -0.0133743  -0.0076603   0.0001658   0.0030894
           HY17         -0.0124117  -0.0723278  -0.0338304  -0.0013626  -0.0064823
           HZ17         -0.0071578  -0.0337614  -0.0367231   0.0006824   0.0055904
           HX18          0.0000605   0.0000144   0.0001384  -0.0020721  -0.0005440
           HY18          0.0000103   0.0001601  -0.0001995   0.0084345   0.0004151
           HZ18         -0.0000953  -0.0000166  -0.0001058   0.0060827   0.0001128
                             CZ2         CX3         CY3         CZ3         CX4     
           CZ2           0.0499313
           CX3           0.0015886   0.0517549
           CY3          -0.0040118   0.0015068   0.0500912
           CZ3          -0.0108490  -0.0023617  -0.0054523   0.0456983
           CX4           0.0005332  -0.0108266  -0.0001186  -0.0044999   0.0517549
           CY4          -0.0023635   0.0001194  -0.0079240   0.0001402  -0.0015117
           CZ4          -0.0017010  -0.0045013  -0.0001395  -0.0153296  -0.0023530
           CX5          -0.0000003   0.0005811   0.0015719  -0.0009501  -0.0084740
           CY5           0.0000001   0.0002670  -0.0000298   0.0005471  -0.0019670
           CZ5           0.0001328   0.0005362   0.0023625  -0.0017051   0.0015966
           CX6          -0.0005365   0.0003198   0.0000077  -0.0000146  -0.0000940
           CY6           0.0023623  -0.0000074  -0.0000231  -0.0000393  -0.0004038
           CZ6          -0.0017015   0.0000144  -0.0000394   0.0001225   0.0003159
           HX7          -0.0014474  -0.0197940  -0.0133390   0.0076514   0.0015186
           HY7           0.0046100  -0.0123781  -0.0722839   0.0338673   0.0000730
           HZ7           0.0034915   0.0071499   0.0337988  -0.0367842   0.0027981
           HX8           0.0357726  -0.0020754  -0.0004443   0.0010945   0.0000263
           HY8           0.0108458   0.0075584   0.0015190  -0.0051331   0.0002249
           HZ8          -0.0440436   0.0047363   0.0016867  -0.0030041   0.0003285
           HX9          -0.0357469   0.0023011   0.0010188   0.0026043   0.0000369
           HY9          -0.0108523  -0.0066563  -0.0014417  -0.0053067   0.0006999
           HZ9          -0.0439745  -0.0047174  -0.0013685  -0.0037411   0.0005565
           HX10         -0.0001764  -0.0003125   0.0000547  -0.0000658   0.0000617
           HY10         -0.0000499  -0.0000327  -0.0001214   0.0000337  -0.0000102
           HZ10          0.0006114  -0.0001733   0.0001232   0.0000006   0.0000943
           HX11         -0.0002796   0.0000614   0.0000142  -0.0001392  -0.0003144
           HY11          0.0021395   0.0000106   0.0001597   0.0001997   0.0000315
           HZ11         -0.0020104   0.0000947   0.0000164  -0.0001062  -0.0001737
           HX12          0.0001777  -0.0057824   0.0002146   0.0009914  -0.0905925
           HY12          0.0000486  -0.0000046   0.0001143  -0.0001136   0.0022639
           HZ12          0.0006113  -0.0103153   0.0002855   0.0020280   0.0147853
           HX13         -0.0009336   0.0015094  -0.0052145  -0.0029498  -0.0197559
           HY13          0.0001920  -0.0000717   0.0007154   0.0006895   0.0123063
           HZ13         -0.0013455   0.0027849  -0.0081491  -0.0045096   0.0070900
           HX14         -0.0000085   0.0000271  -0.0001373   0.0000081  -0.0020936
           HY14          0.0000719  -0.0002233  -0.0000651  -0.0002603  -0.0075664
           HZ14          0.0002003   0.0003292   0.0000293   0.0001152   0.0047551
           HX15          0.0000073   0.0000345  -0.0004596   0.0003725   0.0023094
           HY15         -0.0000708  -0.0007029  -0.0015399   0.0004908   0.0066429
           HZ15          0.0002021   0.0005601   0.0012726  -0.0003902  -0.0047170
           HX16          0.0009346  -0.0002352   0.0001245  -0.0000273   0.0000580
           HY16         -0.0001906  -0.0000386   0.0002374  -0.0001913  -0.0000032
           HZ16         -0.0013473   0.0000442  -0.0002489  -0.0000637  -0.0000879
           HX17          0.0014494   0.0000580   0.0005701  -0.0005255  -0.0002360
           HY17         -0.0046014   0.0000066  -0.0008301   0.0014226   0.0000389
           HZ17          0.0034875  -0.0000909   0.0008298  -0.0007854   0.0000442
           HX18          0.0002795  -0.0905943  -0.0012361   0.0147639  -0.0057855
           HY18         -0.0021500  -0.0021388  -0.0173574   0.0008966   0.0000048
           HZ18         -0.0020151   0.0147962   0.0009378  -0.0194013  -0.0103166
                             CY4         CZ4         CX5         CY5         CZ5     
           CY4           0.0501119
           CZ4           0.0054504   0.0456922
           CX5          -0.0020936   0.0012637   0.0538319
           CY5          -0.0133814   0.0040934  -0.0036082   0.0422965
           CZ5           0.0040131  -0.0108594   0.0000189  -0.0000068   0.0499309
           CX6          -0.0004096  -0.0003215  -0.0084613  -0.0019551  -0.0015849
           CY6          -0.0023826  -0.0011843  -0.0020774  -0.0133913  -0.0040089
           CZ6           0.0011893   0.0013757  -0.0012457  -0.0040868  -0.0108410
           HX7           0.0052120  -0.0029555  -0.0005719  -0.0002515  -0.0009336
           HY7           0.0007142  -0.0006897  -0.0000340   0.0002195  -0.0001915
           HZ7           0.0081407  -0.0045160  -0.0016675  -0.0004331  -0.0013472
           HX8           0.0001380   0.0000089   0.0000055   0.0000528  -0.0000079
           HY8          -0.0000685   0.0002580   0.0000042  -0.0000806  -0.0000716
           HZ8          -0.0000335   0.0001132   0.0000152   0.0000846   0.0002014
           HX9           0.0004568   0.0003708   0.0000058   0.0000522   0.0000079
           HY9          -0.0015415  -0.0004877   0.0000035  -0.0000805   0.0000711
           HZ9          -0.0012705  -0.0003890  -0.0000158  -0.0000839   0.0002010
           HX10         -0.0000158  -0.0001394  -0.0020658   0.0005435  -0.0002757
           HY10          0.0001564  -0.0002033  -0.0084388   0.0003993  -0.0021439
           HZ10         -0.0000181  -0.0001079  -0.0060750   0.0001001  -0.0020101
           HX11         -0.0000562  -0.0000657   0.0001519  -0.0001524  -0.0001750
           HY11         -0.0001235  -0.0000344   0.0001994   0.0000245   0.0000501
           HZ11         -0.0001240   0.0000006  -0.0000467   0.0000639   0.0006104
           HX12          0.0013592   0.0147530  -0.0020872   0.0005458   0.0002838
           HY12         -0.0173652  -0.0009189  -0.0084276   0.0004318   0.0021458
           HZ12         -0.0009595  -0.0193985   0.0060950  -0.0001260  -0.0020156
           HX13          0.0132672   0.0075897   0.0001615  -0.0030939  -0.0014524
           HY13         -0.0723790  -0.0338444   0.0013502  -0.0064831  -0.0046018
           HZ13         -0.0337758  -0.0367245  -0.0006739   0.0055974   0.0034939
           HX14          0.0004507   0.0010998  -0.0635161   0.0149664   0.0356992
           HY14          0.0015274   0.0051102   0.0150406  -0.0207548  -0.0108513
           HZ14         -0.0016929  -0.0029989   0.0349513  -0.0104140  -0.0438346
           HX15         -0.0010160   0.0026199  -0.0632388   0.0148248  -0.0358185
           HY15         -0.0014291   0.0053183   0.0148956  -0.0207012   0.0108503
           HZ15          0.0013618  -0.0037577  -0.0350774   0.0104141  -0.0441840
           HX16         -0.0005693  -0.0005215   0.0001682  -0.0030773   0.0014445
           HY16         -0.0008338  -0.0014221   0.0013708  -0.0064829   0.0046094
           HZ16         -0.0008295  -0.0007823   0.0006869  -0.0055801   0.0034851
           HX17         -0.0001255  -0.0000275  -0.0005674  -0.0002526   0.0009344
           HY17          0.0002376   0.0001913  -0.0000340   0.0002199   0.0001912
           HZ17          0.0002486  -0.0000645   0.0016624   0.0004362  -0.0013452
           HX18         -0.0002050   0.0009924   0.0001540  -0.0001539   0.0001790
           HY18          0.0001146   0.0001138   0.0002016   0.0000244  -0.0000484
           HZ18         -0.0002680   0.0020275   0.0000432  -0.0000637   0.0006123
                             CX6         CY6         CZ6         HX7         HY7     
           CX6           0.0517632
           CY6          -0.0015121   0.0500779
           CZ6           0.0023616  -0.0054425   0.0456844
           HX7          -0.0002350  -0.0001245   0.0000275   0.0679831
           HY7           0.0000389   0.0002375  -0.0001913   0.0463475   0.2698325
           HZ7          -0.0000440  -0.0002483  -0.0000638  -0.0291672  -0.1260937
           HX8           0.0000367   0.0004569  -0.0003717   0.0010819   0.0008677
           HY8           0.0007012  -0.0015395   0.0004866   0.0001923   0.0020290
           HZ8          -0.0005585   0.0012697  -0.0003896  -0.0006459   0.0002204
           HX9           0.0000262   0.0001382  -0.0000089   0.0000069  -0.0001606
           HY9           0.0002238  -0.0000685  -0.0002571   0.0000267  -0.0006781
           HZ9          -0.0003278   0.0000329   0.0001125   0.0001558  -0.0007985
           HX10         -0.0906423   0.0011324  -0.0146983   0.0005351  -0.0000121
           HY10          0.0020297  -0.0173485   0.0008756   0.0001395   0.0001107
           HZ10         -0.0147273   0.0009183  -0.0193711   0.0001143  -0.0000363
           HX11         -0.0057716  -0.0002101  -0.0009840  -0.0000313   0.0002962
           HY11          0.0000065   0.0001146  -0.0001102  -0.0000363  -0.0001758
           HZ11          0.0103265   0.0002788   0.0020201  -0.0000776   0.0001239
           HX12          0.0000601  -0.0000128   0.0001382   0.0005762   0.0006338
           HY12         -0.0000104   0.0001634   0.0001959   0.0003388  -0.0000669
           HZ12         -0.0000958   0.0000150  -0.0001043   0.0010318   0.0002934
           HX13          0.0000588  -0.0005703   0.0005277   0.0007081   0.0003008
           HY13         -0.0000091  -0.0008279   0.0014239  -0.0002997   0.0009697
           HZ13          0.0000934   0.0008308  -0.0007875   0.0010038   0.0006232
           HX14          0.0022950  -0.0010216  -0.0025956   0.0001093   0.0000150
           HY14          0.0066612  -0.0014514  -0.0053001   0.0002293   0.0000656
           HZ14          0.0047175  -0.0013733  -0.0037321  -0.0004647   0.0000877
           HX15         -0.0020621   0.0004407  -0.0010890   0.0003695  -0.0001199
           HY15         -0.0075497   0.0015156  -0.0051435   0.0007336   0.0000747
           HZ15         -0.0047224   0.0016855  -0.0030053  -0.0006846  -0.0000187
           HX16         -0.0198380   0.0134413  -0.0077190   0.0002627   0.0000758
           HY16          0.0124784  -0.0722340   0.0338535  -0.0000755  -0.0000419
           HZ16         -0.0072148   0.0337845  -0.0367820   0.0000730   0.0000974
           HX17          0.0015132   0.0052074   0.0029515  -0.0001292   0.0005511
           HY17          0.0000712   0.0007102   0.0006857   0.0005494  -0.0013717
           HZ17         -0.0027970  -0.0081535  -0.0045161  -0.0003455   0.0009724
           HX18         -0.0003120  -0.0000541   0.0000666  -0.0063951  -0.0016818
           HY18          0.0000320  -0.0001220   0.0000341  -0.0314022  -0.0001261
           HZ18          0.0001728   0.0001229   0.0000002   0.0191174   0.0003698
                             HZ7         HX8         HY8         HZ8         HX9     
           HZ7           0.1383559
           HX8          -0.0004592   0.2347367
           HY8           0.0003848   0.0516405   0.0797181
           HZ8           0.0019510  -0.1348669  -0.0426109   0.1611416
           HX9          -0.0005526  -0.0225620  -0.0072143  -0.0165954   0.2349498
           HY9           0.0003481  -0.0072055  -0.0023148  -0.0054252   0.0517807
           HZ9          -0.0003275   0.0166292   0.0054442   0.0151878   0.1347780
           HX10          0.0000345   0.0003540   0.0000676  -0.0000635   0.0002222
           HY10         -0.0000197   0.0001319  -0.0000046  -0.0000903   0.0000046
           HZ10          0.0000639  -0.0002704  -0.0004268   0.0002930  -0.0004083
           HX11          0.0001343   0.0022108   0.0002981  -0.0003177   0.0010135
           HY11         -0.0000715  -0.0003013   0.0020522  -0.0006941   0.0020176
           HZ11          0.0000581  -0.0000168  -0.0003684   0.0008403  -0.0012132
           HX12         -0.0003683   0.0002221  -0.0005097  -0.0007688   0.0003549
           HY12         -0.0002435   0.0000046   0.0001718  -0.0000017   0.0001315
           HZ12          0.0013911   0.0004080   0.0000397  -0.0002546   0.0002699
           HX13          0.0010025   0.0001077  -0.0002319  -0.0004646   0.0003663
           HY13         -0.0006249  -0.0000156   0.0000657  -0.0000876   0.0001192
           HZ13          0.0007050   0.0002515  -0.0000275  -0.0000919   0.0003998
           HX14          0.0002509  -0.0000146  -0.0000185  -0.0000275   0.0000538
           HY14          0.0000233   0.0000178   0.0000726  -0.0001521  -0.0000013
           HZ14         -0.0000877  -0.0000278   0.0001522   0.0000376  -0.0000646
           HX15          0.0004035   0.0000538   0.0000010  -0.0000646  -0.0000146
           HY15          0.0017662  -0.0000015   0.0001288   0.0000271   0.0000176
           HZ15         -0.0014097   0.0000648   0.0000272  -0.0000566   0.0000270
           HX16         -0.0000733   0.0003653  -0.0007321   0.0006825   0.0001081
           HY16          0.0000973   0.0001202   0.0000738  -0.0000170  -0.0000157
           HZ16          0.0001034  -0.0004009   0.0017645  -0.0014080  -0.0002518
           HX17          0.0003459   0.0000072   0.0000262  -0.0001561   0.0010819
           HY17         -0.0009715  -0.0001596  -0.0006771   0.0007990   0.0008681
           HZ17          0.0006937   0.0005527  -0.0003483  -0.0003279   0.0004589
           HX18          0.0020588   0.0010158   0.0017147   0.0005425   0.0022099
           HY18          0.0051812   0.0020169  -0.0042780  -0.0029816  -0.0003018
           HZ18         -0.0034584   0.0012085  -0.0043983  -0.0017723   0.0000132
                             HY9         HZ9         HX10        HY10        HZ10    
           HY9           0.0797803
           HZ9           0.0426356   0.1608677
           HX10         -0.0005091   0.0007680   0.3409479
           HY10          0.0001717   0.0000041  -0.0071579   0.0600351
           HZ10         -0.0000382  -0.0002543   0.0539439   0.0011156   0.0741019
           HX11          0.0017197  -0.0005475  -0.0005193  -0.0004288   0.0043887
           HY11         -0.0042720   0.0029805   0.0004303   0.0010184   0.0001808
           HZ11          0.0043970  -0.0017749   0.0043896  -0.0001810  -0.0063422
           HX12          0.0000688   0.0000644   0.0001042   0.0001277  -0.0000896
           HY12         -0.0000049   0.0000911   0.0001302   0.0000622  -0.0000962
           HZ12          0.0004275   0.0002928   0.0000875   0.0000954   0.0000325
           HX13         -0.0007342  -0.0006822  -0.0000317   0.0000360  -0.0000784
           HY13          0.0000746   0.0000181  -0.0002967  -0.0001793  -0.0001246
           HZ13         -0.0017653  -0.0014070   0.0001354   0.0000744   0.0000594
           HX14          0.0000017   0.0000647   0.0022172   0.0002967  -0.0000187
           HY14          0.0001278  -0.0000274  -0.0002975   0.0020545   0.0003629
           HZ14         -0.0000273  -0.0000570  -0.0003153   0.0006897   0.0008424
           HX15         -0.0000169   0.0000272   0.0010158  -0.0020096  -0.0012048
           HY15          0.0000729   0.0001519  -0.0017115  -0.0042764  -0.0043902
           HZ15         -0.0001517   0.0000372  -0.0005362  -0.0029724  -0.0017665
           HX16         -0.0002328   0.0004655  -0.0064608   0.0313980  -0.0191320
           HY16          0.0000654   0.0000882   0.0016732  -0.0000803   0.0003419
           HZ16          0.0000276  -0.0000924  -0.0020631   0.0051433  -0.0034380
           HX17          0.0001913   0.0006467   0.0005806   0.0003422  -0.0010314
           HY17          0.0020281  -0.0002210   0.0006378  -0.0000628  -0.0002918
           HZ17         -0.0003842   0.0019498   0.0003656   0.0002446   0.0014002
           HX18          0.0002989   0.0003171   0.0012013   0.0000941   0.0003598
           HY18          0.0020534   0.0006942  -0.0000914  -0.0009646   0.0006499
           HZ18          0.0003687   0.0008396  -0.0003616   0.0006485   0.0000792
                             HX11        HY11        HZ11        HX12        HY12    
           HX11          0.3409533
           HY11          0.0076122   0.0600590
           HZ11          0.0539171  -0.0010137   0.0740918
           HX12          0.0012120  -0.0000901   0.0003621   0.3407880
           HY12          0.0000871  -0.0009748  -0.0006563  -0.0080196   0.0600765
           HZ12         -0.0003640  -0.0006548   0.0000805  -0.0541894  -0.0008965
           HX13          0.0005386  -0.0001383   0.0001148  -0.0063463   0.0314263
           HY13          0.0000113   0.0001113   0.0000363   0.0016926  -0.0001805
           HZ13          0.0000340   0.0000203   0.0000638   0.0020492  -0.0051861
           HX14          0.0003524  -0.0001318  -0.0002710   0.0010131  -0.0020252
           HY14         -0.0000657  -0.0000047   0.0004260  -0.0017233  -0.0042732
           HZ14         -0.0000640   0.0000910   0.0002917   0.0005541   0.0029898
           HX15          0.0002182  -0.0000042  -0.0004061   0.0022034   0.0003069
           HY15          0.0005090   0.0001716   0.0000379  -0.0002993   0.0020515
           HZ15          0.0007647  -0.0000032  -0.0002542   0.0003193  -0.0006986
           HX16          0.0005822  -0.0003422  -0.0010323  -0.0000308   0.0000366
           HY16         -0.0006364  -0.0000643   0.0002916  -0.0002954  -0.0001720
           HZ16          0.0003669  -0.0002427   0.0014009  -0.0001333  -0.0000687
           HX17         -0.0064170  -0.0314216  -0.0190989   0.0005388   0.0001374
           HY17         -0.0016843  -0.0001331  -0.0003718  -0.0000113   0.0001115
           HZ17         -0.0020548  -0.0051481  -0.0034325  -0.0000344   0.0000207
           HX18          0.0001042  -0.0001288  -0.0000882  -0.0005314  -0.0004338
           HY18         -0.0001290   0.0000621   0.0000958   0.0004325   0.0010147
           HZ18          0.0000889  -0.0000959   0.0000325  -0.0043921   0.0001808
                             HZ12        HX13        HY13        HZ13        HX14    
           HZ12          0.0742091
           HX13          0.0190835   0.0678510
           HY13         -0.0003999  -0.0460774   0.2701934
           HZ13         -0.0034537  -0.0289356   0.1260179   0.1381218
           HX14          0.0012172   0.0010765  -0.0008676  -0.0004605   0.2353851
           HY14          0.0044051  -0.0001910   0.0020264  -0.0003887  -0.0519681
           HZ14         -0.0017809  -0.0006479  -0.0002221   0.0019467  -0.1345878
           HX15          0.0000110   0.0000060   0.0001646  -0.0005534  -0.0225623
           HY15         -0.0003744  -0.0000225  -0.0006675  -0.0003567   0.0072157
           HZ15          0.0008372   0.0001572   0.0007957  -0.0003213   0.0165231
           HX16          0.0000774  -0.0001293  -0.0005485   0.0003445   0.0000082
           HY16          0.0001234  -0.0005520  -0.0013718   0.0009744   0.0001555
           HZ16          0.0000568  -0.0003469  -0.0009695   0.0006937   0.0005520
           HX17         -0.0001157   0.0002642  -0.0000763  -0.0000735   0.0003624
           HY17          0.0000367   0.0000761  -0.0000425  -0.0000975  -0.0001194
           HZ17          0.0000636   0.0000732  -0.0000976   0.0001033  -0.0003974
           HX18         -0.0043928   0.0005745  -0.0006354  -0.0003670   0.0002261
           HY18         -0.0001804  -0.0003388  -0.0000655   0.0002455  -0.0000050
           HZ18         -0.0063304   0.0010309  -0.0002936   0.0013902   0.0004103
                             HY14        HZ14        HX15        HY15        HZ15    
           HY14          0.0798611
           HZ14          0.0426326   0.1603475
           HX15          0.0072059  -0.0167007   0.2342933
           HY15         -0.0023147   0.0054687  -0.0514679   0.0796417
           HZ15         -0.0054012   0.0151867   0.1350499  -0.0426212   0.1616634
           HX16         -0.0000304  -0.0001548   0.0010873  -0.0001924   0.0006446
           HY16         -0.0006878  -0.0008017  -0.0008681   0.0020307   0.0002190
           HZ16          0.0003397  -0.0003338   0.0004577   0.0003798   0.0019537
           HX17          0.0007326   0.0006800   0.0001065   0.0002354   0.0004654
           HY17          0.0000738   0.0000164   0.0000163   0.0000655  -0.0000881
           HZ17         -0.0017633  -0.0014049  -0.0002523  -0.0000319  -0.0000966
           HX18          0.0005098  -0.0007720   0.0003564  -0.0000706   0.0000638
           HY18          0.0001719   0.0000028  -0.0001314  -0.0000048  -0.0000905
           HZ18         -0.0000401  -0.0002547   0.0002693  -0.0004281   0.0002939
                             HX16        HY16        HZ16        HX17        HY17    
           HX16          0.0681645
           HY16         -0.0467271   0.2696477
           HZ16          0.0294101  -0.1260331   0.1383702
           HX17          0.0007018  -0.0003002  -0.0010015   0.0680409
           HY17          0.0002991   0.0009656  -0.0006247   0.0464764   0.2699981
           HZ17         -0.0010029   0.0006229   0.0007025   0.0291916   0.1259572
           HX18          0.0005351   0.0000122  -0.0000350  -0.0000312   0.0002959
           HY18         -0.0001387   0.0001110  -0.0000201  -0.0000361  -0.0001754
           HZ18         -0.0001150  -0.0000366   0.0000638   0.0000782  -0.0001240
                             HZ17        HX18        HY18        HZ18    
           HZ17          0.1381322
           HX18         -0.0001344   0.3407919
           HY18          0.0000716   0.0075428   0.0600516
           HZ18          0.0000581  -0.0542109   0.0010015   0.0742139


 Mass Weighted 2nd Derivative Matrix Eigenvalues
   1- 10    0.000000    0.000000    0.000000    0.000000    0.000000    0.000000    0.000576    0.002385    0.003199    0.007781
  11- 20    0.009358    0.013250    0.025426    0.026442    0.027344    0.031741    0.032327    0.035795    0.038758    0.045445
  21- 30    0.045826    0.047812    0.052898    0.053593    0.058892    0.061378    0.069954    0.071467    0.073728    0.075381
  31- 40    0.079875    0.083388    0.084710    0.085042    0.085126    0.086569    0.097560    0.097564    0.099223    0.099851
  41- 50    0.099944    0.102308    0.373720    0.374931    0.375672    0.377151    0.379172    0.379232    0.381879    0.383265
  51- 54    0.385860    0.387747    0.388351    0.390788

 Mass Weighted 2nd Derivative Matrix Eigenvectors
              1             2             3             4             5             6             7             8
    1    0.00000000    0.00000000    0.00000000    0.00000000    0.00000000    0.58541718   -0.17880659   -0.18896935
    2    0.05325418    0.16064143    0.07205249   -0.15412937    0.34618701    0.08320048   -0.12984284   -0.07971532
    3   -0.05205613    0.18623977   -0.03750754    0.45418511   -0.01990401    0.04277994   -0.00416129   -0.12186028
    4    0.26571601   -0.24360682    0.12306609    0.23026078    0.04941350    0.41488299    0.34942252    0.19977461
    5    0.07471194    0.07553798    0.26668937   -0.23086200    0.38312782   -0.00010667    0.06702931    0.17853897
    6   -0.13939912    0.17326199    0.18471022    0.24292627    0.01071408   -0.00005485   -0.00017206   -0.00083682
    7    0.45473412   -0.14470839    0.25340001    0.17707523   -0.12965477    0.05112395   -0.18084530   -0.18313781
    8    0.19482072    0.11557178    0.15106915   -0.09908710    0.30582602   -0.08320334   -0.13083084   -0.07645648
    9   -0.22673760    0.16004340    0.40704495    0.03174498    0.04150482   -0.04278141    0.00506001    0.11900661
   10    0.39548558    0.11949463    0.25895466   -0.04158223   -0.30585638   -0.09780258   -0.17894336    0.18330048
   11    0.12932072    0.25711395   -0.16713759    0.00662577    0.25810748    0.08335041    0.12992714   -0.07664613
   12   -0.19266496    0.00810841    0.40385664    0.15748396    0.14283205    0.04285703    0.00393334   -0.11862902
   13    0.12989566    0.36314803    0.13597246   -0.27186302   -0.35537407    0.07250623    0.34939021   -0.19980965
   14    0.24985182    0.29710906   -0.28274558    0.13866897    0.18063258   -0.00017160   -0.06701052    0.17854713
   15   -0.13949785    0.17321307    0.18497964    0.24269691    0.01077341   -0.00008823    0.00056134    0.00006700
   16   -0.05926869    0.26436288    0.00556754   -0.21878763   -0.17631663    0.43637765   -0.18063534    0.18882540
   17    0.27100830    0.21218724   -0.08847689    0.06191236    0.21761214   -0.08306101    0.13072521   -0.07958252
   18   -0.08607705    0.33789794   -0.03429949    0.32864971   -0.12104411   -0.04270823   -0.00525353    0.12225552
   19    0.18828890   -0.08951214    0.10027138    0.09691176   -0.03039448   -0.02521599   -0.15330685   -0.20619330
   20    0.03700420    0.02511345    0.06693031   -0.05212019    0.10219287   -0.01205860   -0.01294713    0.01290776
   21   -0.07850854    0.01606505    0.16563894   -0.01391715    0.03701539   -0.00620028    0.00747113    0.03996323
   22    0.09908303   -0.11260845    0.04246782    0.10321640    0.03555909    0.12545578    0.22275781    0.17041363
   23   -0.03405682    0.02239135    0.08641427   -0.10729773    0.13639537    0.05266133    0.06779168    0.11488204
   24   -0.03383333   -0.00318966    0.06574746    0.10128559    0.04003570    0.02707735    0.17323183    0.16677602
   25    0.07178931   -0.10388488    0.02726440    0.09255784    0.04331124    0.15749090    0.22275958    0.16988945
   26    0.05565955   -0.00611566    0.13636091   -0.07235499    0.11078649   -0.05275428    0.06713201    0.11629142
   27   -0.04696113    0.10365203    0.04128600    0.03950966   -0.03385431   -0.02712514   -0.17343511   -0.16747611
   28   -0.01384599    0.06438362    0.00171329   -0.05320424   -0.04325577    0.13249960   -0.05290232    0.03754436
   29    0.13262635    0.03879747    0.01732630    0.03302070    0.05065611   -0.09171143    0.16439410   -0.16877844
   30   -0.03897903    0.15937849   -0.00802935    0.04376466   -0.07600252   -0.04715609    0.01034180    0.12088401
   31   -0.00197002    0.01178889    0.00065697   -0.00966519   -0.00822302    0.16202759   -0.05235210   -0.03744436
   32   -0.03865696    0.06924609   -0.02207847   -0.05975070    0.11273713    0.09175206   -0.16316500   -0.16853411
   33   -0.00147235   -0.00801401   -0.01146209    0.18221627    0.03564139    0.04717698    0.01158675   -0.12035472
   34    0.11650995    0.02280478    0.07433886   -0.00236649   -0.08034747   -0.02057744   -0.05226016    0.03606397
   35   -0.02355509    0.08839906   -0.06956561   -0.02783539    0.09525037    0.09178167    0.16297066   -0.16492159
   36   -0.04174817   -0.05902213    0.11495342    0.09722526    0.08224404    0.04719221   -0.01186976   -0.11672632
   37    0.15687028    0.05075635    0.10324296   -0.01917103   -0.12396188   -0.10433699   -0.15157897    0.20590117
   38    0.05684741    0.08289773   -0.07158515    0.02526846    0.06127239    0.01218581    0.01312031    0.01254373
   39   -0.07356167   -0.00606772    0.16521537    0.00435879    0.05178003    0.00626569    0.00710525   -0.03988354
   40    0.04291842    0.13842319    0.04782462   -0.10452261   -0.13192803   -0.01623616    0.22238229   -0.16996332
[...]
           HX18            -0.01716     0.45041     0.28913     0.31833     0.37552
           HY18             0.23989     0.01266     0.01273     0.01128     0.01495
           HZ18            -0.13989    -0.08828    -0.05944    -0.06482    -0.07656

                             41 A        42 A        43 A        44 A        45 A  
 Wavenumbers [cm-1]         3165.35     3165.61     3176.64     3182.40     3193.15
 Intensities [km/mol]          0.00        0.00        0.00        0.00        0.00
 Intensities [relative]        0.00        0.00        0.00        0.00        0.00
           CX1             -0.02253    -0.02971    -0.01119     0.00034    -0.02558
           CY1              0.00600    -0.00420    -0.02294    -0.02385    -0.02842
           CZ1             -0.00212    -0.00798    -0.01507    -0.01415    -0.02039
           CX2              0.00003     0.00013     0.04312     0.04169    -0.00001
           CY2              0.00001     0.00004     0.01328     0.01376    -0.00000
           CZ2              0.03706     0.03231     0.00010    -0.00005    -0.01067
           CX3              0.02230     0.02937    -0.01094     0.00030     0.02556
           CY3             -0.00558     0.00428    -0.02300    -0.02369     0.02842
           CZ3             -0.00234    -0.00800     0.01507     0.01410    -0.02044
           CX4              0.02267    -0.02913    -0.01091    -0.00041     0.02560
           CY4              0.00544     0.00436     0.02296    -0.02368    -0.02858
           CZ4             -0.00247     0.00795     0.01501    -0.01404    -0.02049
           CX5             -0.00015     0.00010     0.04313    -0.04169     0.00012
           CY5              0.00008    -0.00006    -0.01328     0.01377    -0.00005
           CZ5              0.03756    -0.03176     0.00030    -0.00014    -0.01067
           CX6             -0.02301     0.02926    -0.01122    -0.00024    -0.02553
           CY6             -0.00600    -0.00432     0.02298    -0.02385     0.02824
           CZ6             -0.00223     0.00797    -0.01512     0.01419    -0.02033
           HX7              0.02082    -0.00607     0.06110     0.06394    -0.07171
           HY7              0.06560    -0.04725     0.27590     0.28471    -0.33517
           HZ7             -0.03483     0.02835    -0.16675    -0.17502     0.20161
           HX8              0.29101     0.25438    -0.25555    -0.24949    -0.08377
           HY8              0.09124     0.07983    -0.07973    -0.07929    -0.02433
           HZ8             -0.21409    -0.18916     0.20135     0.19694     0.06392
           HX9             -0.29128    -0.25587    -0.25761    -0.24923     0.08384
           HY9             -0.09142    -0.08037    -0.08049    -0.07930     0.02439
           HZ9             -0.21390    -0.18997    -0.20249    -0.19637     0.06385
           HX10             0.29300    -0.34119     0.07183     0.06000     0.23088
           HY10            -0.00788     0.00674     0.00170    -0.00514    -0.00167
           HZ10             0.05767    -0.06612     0.01126     0.01501     0.04109
           HX11             0.28716     0.34715     0.07202    -0.06073     0.23161
           HY11             0.00822     0.00750    -0.00157    -0.00525     0.00204
           HZ11             0.05649     0.06727     0.01129    -0.01514     0.04120
           HX12            -0.28735     0.33998     0.06922     0.06043    -0.23214
           HY12             0.00851    -0.00779     0.00153    -0.00531     0.00237
           HZ12             0.05677    -0.06623    -0.01083    -0.01514     0.04154
           HX13             0.02052     0.00613     0.06051    -0.06345    -0.07148
           HY13            -0.06450    -0.04756    -0.27534     0.28463     0.33672
           HZ13            -0.03406    -0.02841    -0.16601     0.17455     0.20207
           HX14             0.29594    -0.25140    -0.25552     0.24950    -0.08452
           HY14            -0.09301     0.07907     0.07992    -0.07948     0.02462
           HZ14            -0.21653     0.18594     0.20022    -0.19586     0.06415
           HX15            -0.29419     0.25017    -0.25767     0.24927     0.08306
           HY15             0.09214    -0.07843     0.08032    -0.07915    -0.02410
           HZ15            -0.21729     0.18680    -0.20366     0.19749     0.06360
           HX16            -0.02220    -0.00639     0.06158    -0.06492     0.07198
           HY16             0.07034     0.04809    -0.27579     0.28650    -0.33340
           HZ16            -0.03773    -0.02877     0.16681    -0.17620     0.20064
           HX17            -0.02211     0.00575     0.06102     0.06448     0.07183
           HY17            -0.07079     0.04614     0.27525     0.28653     0.33516
           HZ17            -0.03787     0.02761     0.16608     0.17580     0.20123
           HX18            -0.28318    -0.34280     0.06905    -0.05972    -0.23154
           HY18            -0.00795    -0.00727    -0.00167    -0.00519    -0.00198
           HZ18             0.05600     0.06681    -0.01080     0.01502     0.04144

                             46 A        47 A        48 A  
 Wavenumbers [cm-1]         3200.95     3203.44     3213.48
 Intensities [km/mol]          0.00        0.00        0.00
 Intensities [relative]        0.00        0.00        0.00
           CX1              0.01081    -0.01571    -0.02678
           CY1              0.03227    -0.02332    -0.01722
           CZ1              0.02004    -0.01604    -0.01475
           CX2              0.00005    -0.04046    -0.03781
           CY2              0.00002    -0.01207    -0.01194
           CZ2              0.01559     0.00000     0.00001
           CX3             -0.01075    -0.01573    -0.02663
           CY3             -0.03237    -0.02335    -0.01720
           CZ3              0.02014     0.01610     0.01476
           CX4              0.01082     0.01562    -0.02661
           CY4             -0.03246    -0.02328     0.01717
           CZ4             -0.02017    -0.01600     0.01470
           CX5             -0.00001     0.04046    -0.03781
           CY5             -0.00001    -0.01207     0.01194
           CZ5             -0.01560     0.00018    -0.00013
           CX6             -0.01075     0.01582    -0.02679
           CY6              0.03219    -0.02341     0.01725
           CZ6             -0.02003     0.01614    -0.01481
           HX7              0.08288     0.05937     0.04296
           HY7              0.37918     0.27802     0.20426
           HZ7             -0.23008    -0.16861    -0.12338
           HX8              0.11452     0.23969     0.22600
           HY8              0.03613     0.07320     0.06866
           HZ8             -0.08694    -0.18877    -0.17855
           HX9             -0.11517     0.24007     0.22624
           HY9             -0.03638     0.07342     0.06882
           HZ9             -0.08728     0.18870     0.17840
           HX10             0.05332    -0.12976     0.27441
           HY10             0.00390    -0.00157    -0.00257
           HZ10             0.00836    -0.02514     0.05025
           HX11            -0.05439     0.12911     0.27479
           HY11             0.00380    -0.00136     0.00304
           HZ11            -0.00856     0.02502     0.05031
           HX12            -0.05484    -0.12869     0.27341
           HY12            -0.00374    -0.00117    -0.00342
           HZ12             0.00869     0.02509    -0.05035
           HX13            -0.08247    -0.05867     0.04245
           HY13             0.38023     0.27689    -0.20349
           HZ13             0.23017     0.16754    -0.12262
           HX14            -0.11481    -0.23967     0.22613
           HY14             0.03630     0.07339    -0.06887
           HZ14             0.08666     0.18772    -0.17767
           HX15             0.11493    -0.24011     0.22601
           HY15            -0.03624     0.07326    -0.06860
           HZ15             0.08760    -0.18978     0.17921
           HX16             0.08317    -0.06010     0.04355
           HY16            -0.37706     0.27884    -0.20523
           HZ16             0.22890    -0.16918     0.12402
           HX17            -0.08277     0.05940     0.04306
           HY17            -0.37793     0.27763     0.20446
           HZ17            -0.22889     0.16806     0.12326
           HX18             0.05364     0.12930     0.27312
           HY18            -0.00385    -0.00139     0.00293
           HZ18            -0.00847    -0.02520    -0.05030


 Normal Modes of low/zero frequencies

                                  1           2           3           4           5
 Wavenumbers [cm-1]            0.00        0.00        0.00        0.00        0.00
 Intensities [km/mol]          0.00        0.00        0.00        0.00        0.00
 Intensities [relative]        0.00        0.00        0.00        0.00        0.00
           CX1             -0.00000     0.00000    -0.00000     0.00000     0.00000
           CY1              0.01537     0.04637     0.02080    -0.04449     0.09994
           CZ1             -0.01503     0.05376    -0.01083     0.13111    -0.00575
           CX2              0.07671    -0.07032     0.03553     0.06647     0.01426
           CY2              0.02157     0.02181     0.07699    -0.06664     0.11060
           CZ2             -0.04024     0.05002     0.05332     0.07013     0.00309
           CX3              0.13127    -0.04177     0.07315     0.05112    -0.03743
           CY3              0.05624     0.03336     0.04361    -0.02860     0.08828
           CZ3             -0.06545     0.04620     0.11750     0.00916     0.01198
           CX4              0.11417     0.03450     0.07475    -0.01200    -0.08829
           CY4              0.03733     0.07422    -0.04825     0.00191     0.07451
           CZ4             -0.05562     0.00234     0.11658     0.04546     0.04123
           CX5              0.03750     0.10483     0.03925    -0.07848    -0.10259
           CY5              0.07213     0.08577    -0.08162     0.04003     0.05214
           CZ5             -0.04027     0.05000     0.05340     0.07006     0.00311
           CX6             -0.01711     0.07631     0.00161    -0.06316    -0.05090
           CY6              0.07823     0.06125    -0.02554     0.01787     0.06282
           CZ6             -0.02485     0.09754    -0.00990     0.09487    -0.03494
           HX7              0.18756    -0.08916     0.09988     0.09653    -0.03028
           HY7              0.03686     0.02502     0.06667    -0.05192     0.10180
           HZ7             -0.07820     0.01600     0.16499    -0.01386     0.03687
           HX8              0.09870    -0.11217     0.04230     0.10281     0.03542
           HY8             -0.03392     0.02230     0.08608    -0.10688     0.13586
           HZ8             -0.03370    -0.00318     0.06549     0.10089     0.03988
           HX9              0.07151    -0.10348     0.02716     0.09220     0.04314
           HY9              0.05544    -0.00609     0.13583    -0.07207     0.11036
           HZ9             -0.04678     0.10325     0.04113     0.03936    -0.03372
           HX10            -0.01379     0.06413     0.00171    -0.05300    -0.04309
           HY10             0.13211     0.03865     0.01726     0.03289     0.05046
           HZ10            -0.03883     0.15876    -0.00800     0.04359    -0.07571
           HX11            -0.00196     0.01174     0.00065    -0.00963    -0.00819
           HY11            -0.03851     0.06898    -0.02199    -0.05952     0.11230
           HZ11            -0.00147    -0.00798    -0.01142     0.18151     0.03550
           HX12             0.11606     0.02272     0.07405    -0.00236    -0.08003
           HY12            -0.02346     0.08806    -0.06930    -0.02773     0.09488
           HZ12            -0.04159    -0.05879     0.11451     0.09685     0.08192
           HX13             0.15626     0.05056     0.10284    -0.01910    -0.12348
           HY13             0.05663     0.08258    -0.07131     0.02517     0.06103
           HZ13            -0.07328    -0.00604     0.16457     0.00434     0.05158
           HX14             0.04275     0.13788     0.04764    -0.10412    -0.13141
           HY14             0.12766     0.08519    -0.09054     0.08021     0.02690
           HZ14            -0.05525     0.09263     0.06765     0.02146    -0.02400
           HX15             0.01552     0.14676     0.03250    -0.11489    -0.12382
           HY15             0.03838     0.11369    -0.14055     0.04558     0.05232
           HZ15            -0.02536     0.00749     0.03925     0.11847     0.03016
           HX16            -0.07338     0.12370    -0.02511    -0.10857    -0.05806
           HY16             0.07708     0.07613    -0.06004     0.03320     0.05517
           HZ16            -0.00717     0.10573    -0.05784     0.13610    -0.04515
           HX17            -0.04207    -0.01607    -0.02808     0.00710     0.03518
           HY17             0.01647     0.03154     0.05522    -0.05982     0.10759
           HZ17            -0.00228     0.08400    -0.05834     0.15413    -0.03066
           HX18             0.12786    -0.02950     0.07301     0.04087    -0.04526
           HY18             0.11704     0.01953     0.06465     0.00104     0.06791
           HZ18            -0.07901     0.10793     0.11810    -0.04123    -0.02926

                                  6
 Wavenumbers [cm-1]            0.00
 Intensities [km/mol]          0.00
 Intensities [relative]        0.00
           CX1              0.16900
           CY1              0.02402
           CZ1              0.01235
           CX2              0.11977
           CY2             -0.00003
           CZ2             -0.00002
           CX3              0.01476
           CY3             -0.02402
           CZ3             -0.01235
           CX4             -0.02823
           CY4              0.02406
           CZ4              0.01237
           CX5              0.02093
           CY5             -0.00005
           CZ5             -0.00003
           CX6              0.12597
           CY6             -0.02398
           CZ6             -0.01233
           HX7             -0.02512
           HY7             -0.01201
           HZ7             -0.00618
           HX8              0.12497
           HY8              0.05246
           HZ8              0.02697
           HX9              0.15688
           HY9             -0.05255
           HZ9             -0.02702
           HX10             0.13198
           HY10            -0.09135
           HZ10            -0.04697
           HX11             0.16140
           HY11             0.09140
           HZ11             0.04699
           HX12            -0.02050
           HY12             0.09142
           HZ12             0.04701
           HX13            -0.10393
           HY13             0.01214
           HZ13             0.00624
           HX14            -0.01617
           HY14            -0.05263
           HZ14            -0.02706
           HX15             0.01564
           HY15             0.05237
           HZ15             0.02693
           HX16             0.16582
           HY16            -0.01186
           HZ16            -0.00610
           HX17             0.24467
           HY17             0.01198
           HZ17             0.00616
           HX18             0.00881
           HY18            -0.09138
           HZ18            -0.04699


 Frequencies dumped to record   5400.2

 Zero point energy:  0.18011206 [H]    39530.03 [1/CM]      472.88 [KJ/MOL]
 Frequency information read from record  5400.2


 **********************************************************************************************************************************
 DATASETS  * FILE   NREC   LENGTH (MB)   RECORD NAMES
              1      18       30.02       500      610      700      900      950      970     1000      129      960     1100   
                                          VAR    BASINP    GEOM    SYMINP    ZMAT    AOBASIS   BASIS     P2S    ABASIS      S 
                                         1400     1410     1200     1210     1080     1600     1650     1700   
                                           T        V       H0       H01     AOSYM     SMH    MOLCAS    OPER   

              2       7        1.63       700     1000      520     2100     5300     5450     5400   
                                         GEOM     BASIS   MCVARS     RHF     HESS     NMOD     FREQ   

              4       5       27.02      4100     4000     4200     4300     4400   

 PROGRAMS   *        TOTAL      FREQ      OPTG    HF-SCF       INT
 CPU TIMES  *     19128.53  11680.82   6373.52   1069.15      4.84
 REAL TIME  *      7398.48 SEC
 DISK USED  *        33.22 MB (local),        1.90 GB (total)
 SF USED    *        27.02 MB
 GA USED    *         0.01 MB       (max)       0.00 MB       (current)
 **********************************************************************************************************************************

 Dump information in style MOLDEN to cycloboat.molden                                                                

 Molecular orbitals read from record     2100.2  Type=RHF/CANONICAL  
 Occupation numbers read from record     2100.2  Type=RHF/RHF  
 Orbital energies read from record       2100.2  Type=RHF/CANONICAL  
 Redundancy group numbers read from rec  2100.2  Type=RHF/RHF  

 DUMP ORBITAL  1.1 AS ORBITAL    1  occ=    2.0000  eig=  -11.2107  GROUP=   2
 DUMP ORBITAL  2.1 AS ORBITAL    2  occ=    2.0000  eig=  -11.2106  GROUP=   2
 DUMP ORBITAL  3.1 AS ORBITAL    3  occ=    2.0000  eig=  -11.2103  GROUP=   2
 DUMP ORBITAL  4.1 AS ORBITAL    4  occ=    2.0000  eig=  -11.2099  GROUP=   2
 DUMP ORBITAL  5.1 AS ORBITAL    5  occ=    2.0000  eig=  -11.2097  GROUP=   2
 DUMP ORBITAL  6.1 AS ORBITAL    6  occ=    2.0000  eig=  -11.2095  GROUP=   2
 DUMP ORBITAL  7.1 AS ORBITAL    7  occ=    2.0000  eig=   -1.1096  GROUP=   2
 DUMP ORBITAL  8.1 AS ORBITAL    8  occ=    2.0000  eig=   -0.9970  GROUP=   2
 DUMP ORBITAL  9.1 AS ORBITAL    9  occ=    2.0000  eig=   -0.9953  GROUP=   2
 DUMP ORBITAL 10.1 AS ORBITAL   10  occ=    2.0000  eig=   -0.8389  GROUP=   2
 DUMP ORBITAL 11.1 AS ORBITAL   11  occ=    2.0000  eig=   -0.8293  GROUP=   2
 DUMP ORBITAL 12.1 AS ORBITAL   12  occ=    2.0000  eig=   -0.7239  GROUP=   2
 DUMP ORBITAL 13.1 AS ORBITAL   13  occ=    2.0000  eig=   -0.6541  GROUP=   2
 DUMP ORBITAL 14.1 AS ORBITAL   14  occ=    2.0000  eig=   -0.6467  GROUP=   2
 DUMP ORBITAL 15.1 AS ORBITAL   15  occ=    2.0000  eig=   -0.5941  GROUP=   2
 DUMP ORBITAL 16.1 AS ORBITAL   16  occ=    2.0000  eig=   -0.5566  GROUP=   2
 DUMP ORBITAL 17.1 AS ORBITAL   17  occ=    2.0000  eig=   -0.5232  GROUP=   2
 DUMP ORBITAL 18.1 AS ORBITAL   18  occ=    2.0000  eig=   -0.5125  GROUP=   2
 DUMP ORBITAL 19.1 AS ORBITAL   19  occ=    2.0000  eig=   -0.5043  GROUP=   2
 DUMP ORBITAL 20.1 AS ORBITAL   20  occ=    2.0000  eig=   -0.5007  GROUP=   2
 DUMP ORBITAL 21.1 AS ORBITAL   21  occ=    2.0000  eig=   -0.4915  GROUP=   2
 DUMP ORBITAL 22.1 AS ORBITAL   22  occ=    2.0000  eig=   -0.4293  GROUP=   2
 DUMP ORBITAL 23.1 AS ORBITAL   23  occ=    2.0000  eig=   -0.4272  GROUP=   2
 DUMP ORBITAL 24.1 AS ORBITAL   24  occ=    2.0000  eig=   -0.4250  GROUP=   2

 Total charge:      48.000000
 Frequency information read from record  5400.2

 **********************************************************************************************************************************

 HF/6-311G(D,P)//HF/6-311G(D,P) energy=   -234.252652610151

    OPTG(HF-SCF)          HF-SCF
   -234.25265261   -234.24188747
 **********************************************************************************************************************************
 Molpro calculation terminated
