[Molden Format]
[Molpro variables]
_NUMVAR=  1121.000000000000    
_AVOGAD= 0.6022140760000000E+24
_BOLTZ= 0.1380649000000000E-22
_CLIGHTSI=  299792458.0000000    
_JOULE= 0.4359744722207100E-17
_JPCAL=  4.184000000000000    
_PLANCK= 0.6626070150000000E-33
_BOHR= 0.5291772109030000E-10
_ECHARG= 0.1602176634000000E-18
_ENULL= 0.8854187812800001E-11
_MU= 0.1660539066600000E-26
_EMASS= 0.9109383701500001E-30
_AMU2AU=  1822.888486217313    
_CLIGHT=  29979245800.00000    
_EV= 0.3674932217565494E-01
_KJOULE= 0.3808798847133432E-03
_KJOULE/MOL= 0.3808798847133432E-03
_CM= 0.4556335252912009E-05
_CM-1= 0.4556335252912009E-05
_DEB2SI= 0.3335640951981520E-29
_KCAL= 0.1593601437640628E-02
_KCAL/MOL= 0.1593601437640628E-02
_KELVIN= 0.3166811563455608E-05
_HERTZ= 0.1519829846057038E-15
_HZ= 0.1519829846057038E-15
_TOA= 0.5291772109030000    
_TOANG= 0.5291772109030000    
_TORAD= 0.1745329251994330E-01
_TOCM=  219474.6313631965    
_TODEBYE=  2.541746473194078    
_TOE= 0.4803204712570263E-09
_TOEV=  27.21138624598803    
_TOHERTZ=  6579683920501656.    
_TOHZ=  6579683920501656.    
_TOK=  315775.0248040668    
_TOKCAL=  627.5094740630558    
_TOKELVIN=  315775.0248040668    
_TOKJ=  2625.499639479825    
_TOKJOULE=  2625.499639479825    
_TOKG= 0.1660539066600000E-26
_ANG=  1.889726124625770    
_ANGSTROM=  1.889726124625770    
_RPAREF=  0.000000000000000    
_RPADISS=  0.000000000000000    
_IGNORE_UNDEF=  2.000000000000000    
_STRICTCHECK=  0.000000000000000    
!SEWARD=  0.000000000000000    
!MULTI=  0.000000000000000    
!DFMULTI=  0.000000000000000    
_SEW_ONEEL=  0.000000000000000    
_CPPDONE=FALSE
_DKROLL_DONE=  0.000000000000000    
_FNUC_DONE=  0.000000000000000    
_FOCKDONE=TRUE
_GRADONE=FALSE
_HESSDONE=TRUE
_INTDONE=TRUE
_SCFDONE=TRUE
_MODUL_BLOCK=FALSE
_MODUL_CUDA=FALSE
_MODUL_SLATER=FALSE
_MODUL_MRCC=FALSE
_MODUL_NBO6=FALSE
_MODUL_NECI=FALSE
_MODUL_AIMS=TRUE
_MODUL_GECCO=FALSE
_ISWINDOWS=FALSE
_MRCC_EXEC=
_FITC_AO_SAVED=FALSE
_FITC_MO_SAVED=FALSE
_SHARED_FS=TRUE
_LSTYP=SEWARD
_INTYP=INTS
_GEOMTYP=ZMAT
_GRADTYP=ALASKA
_DIRECT=FALSE
_DKHO= -1.000000000000000    
_FNUC=  0.000000000000000    
_SYNCM=  0.000000000000000    
_BASIS=6-311G(D,P)
_ZCENTRE=MASS
_ZORIENT=  1.000000000000000    
_NELEC=  48.00000000000000    
!SPIN=  0.000000000000000    
_OPTCONV= 0.3024599528423100E-02
_QSDSTEP=  0.000000000000000    
_QSDIRC=  0.000000000000000    
_PROGRAM=FREQ
_CPUSTEP=  11680.83000000000    
_SYSSTEP=  56.31000000000000    
_WALLSTEP=  4519.030000000000    
!DFSCF=  0.000000000000000    
!SCSGRD=  0.000000000000000    
_CPUTOT=  19128.53000000000    
_DFTEXFAC=  1.000000000000000    
_DMX= 0.8565486071270923E-04
_DMY=-0.1357098783982987E-04
_DMZ= 0.2764781056513129E-05
_DMX_SCF= 0.8565486071270923E-04
_DMY_SCF=-0.1357098783982987E-04
_DMZ_SCF= 0.2764781056513129E-05
_FREQUENCIES= 0.2834426516883919E-04
_HOMO=  24.10000000000000    
_EHOMO=-0.4250381858902982    
_LUMO=  25.10000000000000    
_ELUMO= 0.1509858386858265    
_ENERGY= -234.2526526101508    
_ENERGY_METHOD=HF
_ENERGY_BASIS=6-311G(D,P)
_GEOMETRY_METHOD=HF
_GEOMETRY_BASIS=6-311G(D,P)
_ENUC=  256.4254129110080    
_GRADENERG= -234.2526522691928    
_GRADEXFAC=  9999.000000000000    
_GRADMETHOD=  1.000000000000000    
_NMRMETHOD=  0.000000000000000    
_NMRMAGNET=  0.000000000000000    
_VIRIAL= 0.3268583162588252E-02
!GRID_FREEZE= -1.000000000000000    
!NEESE_INDEX=  0.000000000000000    
_ITERATIONS=  8.000000000000000    
_LASTNELEC=  48.00000000000000    
_LASTSPIN=  0.000000000000000    
_LASTSYM=  1.000000000000000    
_MPP_PROG=  1.000000000000000    
_MSNSTATES=  0.000000000000000    
_RS2PHASE=  0.000000000000000    
_IPROC_MPP=  0.000000000000000    
_IPROC_MPPX=  0.000000000000000    
_NPROC_MPP=  6.000000000000000    
_NPROC_MPPX=  6.000000000000000    
_NPROC_SMP=  8.000000000000000    
_NUMSTEP=  0.000000000000000    
_OPTCONVMX= 0.1925835034791490E-02
_OPTCONVRMS= 0.7129049456401100E-03
_OPTGRAD= 0.4696185570523803E-03
_OPTGRADMX= 0.2812582398344113E-03
_OPTGRADRMS= 0.9783719938591255E-05
_OPTSTEP=  7.000000000000000    
_ORBITAL=  2100.200000000000    
_PI=  3.141592653589793    
_SEIG_MIN= 0.5589610890395301E-03
_SEWPROP=TRUE
_STATUS=  1.000000000000000    
_SYSTOT=  91.56000000000000    
_VERSION=  2022002.000000000    
_WALLTOT=  7398.480000000000    
_ZPE= 0.1801120641043930    
_DATE=25-Aug-25
_LASTORB=0
_OUTPUT=/home/zwa/Overlap_Integral_Project/overlap_integral_gaussian/molpro_files/cyclohexane/cycloboat.out
_PGROUP=C1
_TIME=09:21:30
_LIBMOL=/usr/local/molpro/molpro_2022.2.3_sockets/lib/
_VIGRDC=  0.000000000000000    
!VIBCNT=  0.000000000000000    
!RGHFCNT=  0.000000000000000    
!SURFREC=  0.000000000000000    
!XSURFREC=  0.000000000000000    
!XPOLYREC=  0.000000000000000    
!ROTREC=  0.000000000000000    
!POLYREC=  0.000000000000000    
!DIPREC=  0.000000000000000    
!DIP4DREC=  0.000000000000000    
!DIPROT=  0.000000000000000    
!DIP4DROT=  0.000000000000000    
!PTREC=  0.000000000000000    
!PT4DREC=  0.000000000000000    
!VSCFREC=  0.000000000000000    
!VCIREC=  0.000000000000000    
!PVCIREC=  0.000000000000000    
!VMP2REC=  0.000000000000000    
!VMCSCFREC=  0.000000000000000    
!VMRCIREC=  0.000000000000000    
!VIBSTATEREC=  0.000000000000000    
!VIBSTATECNT=  0.000000000000000    
!VIBINFO=  0.000000000000000    
!GAREC=  0.000000000000000    
!SCFORB=  21002.00000000000    
!DEFCORE=  6.000000000000000    
!SCORE=  0.000000000000000    
!NEWMOL=  0.000000000000000    
!NEWSYM=  0.000000000000000    
_SLFILES=slscratch
_NGSSTO=  9.000000000000000    
_SIN=SIN
_COS=COS
_TAN=TAN
_ACOS=ACOS
_ASIN=ASIN
_ATAN=ATAN
_COSH=COSH
_SINH=SINH
_TANH=TANH
_ABS=ABS
_MOD=MOD
_ERF=ERF
_REFC=REFC
_ERFC=ERFC
_HYPOT=HYPOT
_J0=J0
_J1=J1
_JN=JN
_GAMMA=GAMMA
_LGAMMA=LGAMMA
_Y0=Y0
_Y1=Y1
_YN=YN
_EXP=EXP
_LOG=LOG
_LOG10=LOG10
_SQRT=SQRT
_INT=INT
_NINT=NINT
_MAX=MAX
_MIN=MIN
_COSMO=  0.000000000000000    
_COSMOIT=  0.000000000000000    
_COSMOES=  0.000000000000000    
_COSMOEDS=  0.000000000000000    
_COSMOEC=  0.000000000000000    
_COSMOEDCORR=  0.000000000000000    
_FEPSI=  1.000000000000000    
_SL_IsMM=  0.000000000000000    
_SL_NSYM=  1.000000000000000    
_SL_System_BitSw=  0.000000000000000    
_SL_Unique_atoms=  0.000000000000000    
_SL_GRAD=  0.000000000000000    
_SL_MAXUPD_Hess=  5.000000000000000    
_SL_N_PRINT_COD=  5.000000000000000    
_SL_PRINT_CODES=  0.000000000000000    
_SL_BasType=  0.000000000000000    
_SL_Energy_Pred=  0.000000000000000    
_SL_New_Coords=  0.000000000000000    
_SL_Total_Nuclea=  0.000000000000000    
_SL_Highest_Mltp=  0.000000000000000    
_SL_Ref_Geom=  0.000000000000000    
_SL_Symmetry_ope=  1.000000000000000    
_SL_agrad=  0.000000000000000    
_SL_GrdMax=  0.000000000000000    
_SL_GrdNorm=  0.000000000000000    
_SL_GrdRMS=  0.000000000000000    
_SL_Hss_Q=  0.000000000000000    
_SL_Hss_X=  0.000000000000000    
_SL_BMxOld=  0.000000000000000    
_SL_KtB=  0.000000000000000    
_SL_TROld=  0.000000000000000    
_SL_No_of_Intern=  0.000000000000000    
_SL_Hess=  0.000000000000000    
_SL_K=  0.000000000000000    
!LATTICE= -1.000000000000000    
!NEWLATTICE=  0.000000000000000    
!LATGRAD_VAR=FALSE
!SEW_LATTICE=  1.000000000000000    
!AIC_ONEEL=  0.000000000000000    
!LOCAL=  0.000000000000000    
!SAVEDOM= -1.000000000000000    
!RESTDOM= -1.000000000000000    
!SAVEDOM_HF= -1.000000000000000    
!RESTDOM_HF= -1.000000000000000    
!HESSREC=  5300.200000000000    
!FREQREC=  5400.200000000000    
!NMODREC=  5450.200000000000    
!GTASKS=  0.000000000000000    
!HTASKS=  0.000000000000000    
!SAVEDOM_EOM= -1.000000000000000    
!RESTDOM_EOM= -1.000000000000000    
!GRADSTATE= -1.000000000000000    
!DEBUG=  0.000000000000000    
!CFIT_CPHF=  0.000000000000000    
!RDOMAUX_CPHF=  0.000000000000000    
!THRAO_CPHF= 0.1000000000000000E-11
!THRMO_CPHF= 0.1000000000000000E-11
!THROV_CPHF= 0.1000000000000000E-11
!THRSW_CPHF= 0.1000000000000000E-11
!THRPROD_CPHF= 0.1000000000000000E-11
!THRAOPR_CPHF= 0.1000000000000000E-11
!CFIT_SCFGRD=  0.000000000000000    
!RDOMAUX_SCFGRD=  0.000000000000000    
!THRAO_SCFGRD= 0.1000000000000000E-11
!THRMO_SCFGRD= 0.1000000000000000E-11
!THROV_SCFGRD= 0.1000000000000000E-11
!THRSW_SCFGRD= 0.1000000000000000E-11
!THRPROD_SCFGRD= 0.1000000000000000E-11
!THRAOPR_SCFGRD= 0.1000000000000000E-11
!LOCFIT_SCF=  0.000000000000000    
!LOCFIT_MP2=  0.000000000000000    
_RIDOM=  0.000000000000000    
!CC2_METHOD=  0.000000000000000    
_BASIS2006=FALSE
_SVDDEL= -1.000000000000000    
_SVDDELA= -1.000000000000000    
_SVDDELP= -1.000000000000000    
_SVDDELF= -1.000000000000000    
_SVDDELS= -1.000000000000000    
_SVDDEL_ABS= -1.000000000000000    
_SVDDELA_ABS= -1.000000000000000    
_SVDDELP_ABS= -1.000000000000000    
_SVDDELF_ABS= -1.000000000000000    
_SVDDELS_ABS= -1.000000000000000    
_MAXBASIS=  0.000000000000000    
!OPT_CONICAL=  0.000000000000000    
!CLEARSP_JGRID=  0.000000000000000    
_GRDHYBR=  0.000000000000000    
_STATEGRAD=  1.000000000000000    
_4EXT_NDISKS=  1.000000000000000    
!EMBEDFLAG=  1.000000000000000    
!EMBED=FALSE
!EMBED_F12=FALSE
!EMBEDNUC=  0.000000000000000    
_EMBEDENERGY=  0.000000000000000    
!EMBED_DFC=FALSE
!NUM_VOIDS=  0.000000000000000    
_IBODY=  0.000000000000000    
_EMBE_CORR=  0.000000000000000    
!EMBED_PROJ=FALSE
!EMB_PROJ_ZMU=  1000000.000000000    
!CORRECTION_HF=  0.000000000000000    
!EMBED_AORB=  0.000000000000000    
!EMBED_NACORR=  0.000000000000000    
!EMBED_MP2=FALSE
!EMBED_TRUNC_PERTURBATION=FALSE
!EMBED_FROZEN=  0.000000000000000    
!EMBED_ACTIVE=  0.000000000000000    
_CHANGE_BASIS=FALSE
_RESTORE_BASIS=FALSE
_FIX_EMBED_GUESS=FALSE
_EMBED_SCF=FALSE
_HUZINAGA_T=FALSE
_HUZINAGA_F=FALSE
_HUZINAGA=FALSE
_HUZINAGA_CORRECT=FALSE
!FASTLATGRAD=  1.000000000000000    
!FASTVLAMBDA= -1.000000000000000    
!IFORCE= -1.000000000000000    
!USESYM= -1.000000000000000    
_SINDEX=  0.000000000000000    
_AVDOM_OSV=  0.000000000000000    
_AVDOM_PNO=  0.000000000000000    
_AVDOM_PAO=  0.000000000000000    
_AVDOM_LMO=  0.000000000000000    
_CC2OSV_FLAG=  0.000000000000000    
_EOMCCSD_CONV=FALSE
_TMADC2_FLAG=FALSE
_PROPADC2_FLAG=FALSE
_LEN_VirQ=  0.000000000000000    
_GRDCC2LR_FLAG=FALSE
_GRDADC2_FLAG=FALSE
_RO_VGLOBAL=  0.000000000000000    
_OPT=FALSE
_FREQ=FALSE
_HESS=FALSE
_CMRCC_callName=EMPTY
_CMRCC_callCount=  0.000000000000000    
_GECCO_CIROOT=  1.000000000000000    
_SYM_CATION=  1.000000000000000    
_MON_A=FALSE
_MON_B=FALSE
GX1= 0.3807492741609537    
GY1= -1.222835619154069    
GZ1=-0.6626375774964784    
GX2=-0.4881683765696539E-03
GY2=-0.4816962088490508E-03
GZ2= -1.522144664436349    
GX3=-0.3807623421037381    
GY3=  1.222542599791314    
GZ3=-0.6632191751304066    
GX4= 0.3814354070808289    
GY4=  1.222567366162154    
GZ4= 0.6622058936720407    
GX5=-0.7852832057692130E-03
GY5= 0.1004121902901932E-02
GZ5=  1.522181173998675    
GX6=-0.3801110372609044    
GY6= -1.222719928420012    
GZ6= 0.6636164339685573    
GX7=-0.1904180467155549    
GY7=  2.138449540276265    
GZ7= -1.215092946458800    
GX8= 0.8315782616840798    
GY8= 0.2524164957545149    
GZ8= -2.174358082435893    
GX9=-0.8330460149742572    
GY9=-0.2538781239075851    
GZ9= -2.173529561476223    
GX10= -1.448220809045891    
GY10= -1.210979643834618    
GZ10= 0.4554006837892092    
GX11=  1.448862339460635    
GY11= -1.209370075871345    
GZ11=-0.4545701428962854    
GX12=  1.449330019441818    
GY12=  1.207486471037819    
GZ12= 0.4530333243657661    
GX13= 0.1924267914481567    
GY13=  2.139236857095077    
GZ13=  1.213277703093622    
GX14=-0.8344003878205081    
GY14= 0.2550993476970156    
GZ14=  2.171955478433705    
GX15= 0.8301911055589987    
GY15=-0.2512719973656418    
GZ15=  2.176009224473247    
GX16=-0.1880092253995853    
GY16= -2.138257482499887    
GZ16=  1.215494567612019    
GX17= 0.1899156382314893    
GY17= -2.139123762200005    
GZ17= -1.213719482836075    
GX18= -1.448660348859549    
GY18=  1.209277404571469    
GZ18=-0.4539255863548687    
CX1= 0.7195118503142539    
CY1= -2.310824415638373    
CZ1= -1.252203541353829    
CX2=-0.9225045344198534E-03
CY2=-0.9102739099952320E-03
CZ2= -2.876436537845094    
CX3=-0.7195365451471287    
CY3=  2.310270689293553    
CZ3= -1.253302601596683    
CX4= 0.7208084536179079    
CY4=  2.310317490951543    
CZ4=  1.251387777153210    
CX5=-0.1483970189171984E-02
CY5= 0.1897515392222733E-02
CZ5=  2.876505530918822    
CX6=-0.7183057573705306    
CY6= -2.310605791835848    
CZ6=  1.254053312001375    
HX7=-0.3598379574785945    
HY7=  4.041083962454025    
HZ7= -2.296192884771696    
HX8=  1.571455165775291    
HY8= 0.4769980463137966    
HZ8= -4.108941272670300    
HX9= -1.574228817512245    
HY9=-0.4797601232191419    
HZ9= -4.107375594968012    
HX10= -2.736740697080689    
HY10= -2.288419869344288    
HZ10= 0.8605825693289081    
HX11=  2.737953013865174    
HY11= -2.285378226714731    
HZ11=-0.8590130745059800    
HX12=  2.738836800943580    
HY12=  2.281818729452345    
HZ12= 0.8561089083800487    
HX13= 0.3636339348774965    
HY13=  4.042571775614893    
HZ13=  2.292762571961967    
HX14= -1.576788211262288    
HY14= 0.4820679017180431    
HZ14=  4.104401009120236    
HX15=  1.568833820606790    
HY15=-0.4748352578087510    
HZ15=  4.112061478913757    
HX16=-0.3552859449082513    
HY16= -4.040721025856567    
HZ16=  2.296951838757137    
HX17= 0.3588885430410220    
HY17= -4.042358057237113    
HZ17= -2.293597414682610    
HX18= -2.737571306949373    
HY18=  2.285203103338351    
HZ18=-0.8577950391708664    
[Atoms] Angs
C     1    6         0.3807492742       -1.2228356192       -0.6626375775
C     2    6        -0.0004881684       -0.0004816962       -1.5221446644
C     3    6        -0.3807623421        1.2225425998       -0.6632191751
C     4    6         0.3814354071        1.2225673662        0.6622058937
C     5    6        -0.0007852832        0.0010041219        1.5221811740
C     6    6        -0.3801110373       -1.2227199284        0.6636164340
H     7    1        -0.1904180467        2.1384495403       -1.2150929465
H     8    1         0.8315782617        0.2524164958       -2.1743580824
H     9    1        -0.8330460150       -0.2538781239       -2.1735295615
H    10    1        -1.4482208090       -1.2109796438        0.4554006838
H    11    1         1.4488623395       -1.2093700759       -0.4545701429
H    12    1         1.4493300194        1.2074864710        0.4530333244
H    13    1         0.1924267914        2.1392368571        1.2132777031
H    14    1        -0.8344003878        0.2550993477        2.1719554784
H    15    1         0.8301911056       -0.2512719974        2.1760092245
H    16    1        -0.1880092254       -2.1382574825        1.2154945676
H    17    1         0.1899156382       -2.1391237622       -1.2137194828
H    18    1        -1.4486603489        1.2092774046       -0.4539255864
[GTO]
   1 0
 s    6  1.00
  0.4563240000D+04  0.1966650249D-02
  0.6820240000D+03  0.1523060193D-01
  0.1549730000D+03  0.7612690966D-01
  0.4445530000D+02  0.2608010331D+00
  0.1302900000D+02  0.6164620782D+00
  0.1827730000D+01  0.2210060280D+00
 s    3  1.00
  0.2096420000D+02  0.1146600807D+00
  0.4803310000D+01  0.9199996477D+00
  0.1459330000D+01 -0.3030682134D-02
 s    1  1.00
  0.4834560000D+00  0.1000000000D+01
 s    1  1.00
  0.1455850000D+00  0.1000000000D+01
 p    3  1.00
  0.2096420000D+02  0.4024869267D-01
  0.4803310000D+01  0.2375939567D+00
  0.1459330000D+01  0.8158538515D+00
 p    1  1.00
  0.4834560000D+00  0.1000000000D+01
 p    1  1.00
  0.1455850000D+00  0.1000000000D+01
 d    1  1.00
  0.6260000000D+00  0.1000000000D+01
  
   2 0
 s    6  1.00
  0.4563240000D+04  0.1966650249D-02
  0.6820240000D+03  0.1523060193D-01
  0.1549730000D+03  0.7612690966D-01
  0.4445530000D+02  0.2608010331D+00
  0.1302900000D+02  0.6164620782D+00
  0.1827730000D+01  0.2210060280D+00
 s    3  1.00
  0.2096420000D+02  0.1146600807D+00
  0.4803310000D+01  0.9199996477D+00
  0.1459330000D+01 -0.3030682134D-02
 s    1  1.00
  0.4834560000D+00  0.1000000000D+01
 s    1  1.00
  0.1455850000D+00  0.1000000000D+01
 p    3  1.00
  0.2096420000D+02  0.4024869267D-01
  0.4803310000D+01  0.2375939567D+00
  0.1459330000D+01  0.8158538515D+00
 p    1  1.00
  0.4834560000D+00  0.1000000000D+01
 p    1  1.00
  0.1455850000D+00  0.1000000000D+01
 d    1  1.00
  0.6260000000D+00  0.1000000000D+01
  
   3 0
 s    6  1.00
  0.4563240000D+04  0.1966650249D-02
  0.6820240000D+03  0.1523060193D-01
  0.1549730000D+03  0.7612690966D-01
  0.4445530000D+02  0.2608010331D+00
  0.1302900000D+02  0.6164620782D+00
  0.1827730000D+01  0.2210060280D+00
 s    3  1.00
  0.2096420000D+02  0.1146600807D+00
  0.4803310000D+01  0.9199996477D+00
  0.1459330000D+01 -0.3030682134D-02
 s    1  1.00
  0.4834560000D+00  0.1000000000D+01
 s    1  1.00
  0.1455850000D+00  0.1000000000D+01
 p    3  1.00
  0.2096420000D+02  0.4024869267D-01
  0.4803310000D+01  0.2375939567D+00
  0.1459330000D+01  0.8158538515D+00
 p    1  1.00
  0.4834560000D+00  0.1000000000D+01
 p    1  1.00
  0.1455850000D+00  0.1000000000D+01
 d    1  1.00
  0.6260000000D+00  0.1000000000D+01
  
   4 0
 s    6  1.00
  0.4563240000D+04  0.1966650249D-02
  0.6820240000D+03  0.1523060193D-01
  0.1549730000D+03  0.7612690966D-01
  0.4445530000D+02  0.2608010331D+00
  0.1302900000D+02  0.6164620782D+00
  0.1827730000D+01  0.2210060280D+00
 s    3  1.00
  0.2096420000D+02  0.1146600807D+00
  0.4803310000D+01  0.9199996477D+00
  0.1459330000D+01 -0.3030682134D-02
 s    1  1.00
  0.4834560000D+00  0.1000000000D+01
 s    1  1.00
  0.1455850000D+00  0.1000000000D+01
 p    3  1.00
  0.2096420000D+02  0.4024869267D-01
  0.4803310000D+01  0.2375939567D+00
  0.1459330000D+01  0.8158538515D+00
 p    1  1.00
  0.4834560000D+00  0.1000000000D+01
 p    1  1.00
  0.1455850000D+00  0.1000000000D+01
 d    1  1.00
  0.6260000000D+00  0.1000000000D+01
  
   5 0
 s    6  1.00
  0.4563240000D+04  0.1966650249D-02
  0.6820240000D+03  0.1523060193D-01
  0.1549730000D+03  0.7612690966D-01
  0.4445530000D+02  0.2608010331D+00
  0.1302900000D+02  0.6164620782D+00
  0.1827730000D+01  0.2210060280D+00
 s    3  1.00
  0.2096420000D+02  0.1146600807D+00
  0.4803310000D+01  0.9199996477D+00
  0.1459330000D+01 -0.3030682134D-02
 s    1  1.00
  0.4834560000D+00  0.1000000000D+01
 s    1  1.00
  0.1455850000D+00  0.1000000000D+01
 p    3  1.00
  0.2096420000D+02  0.4024869267D-01
  0.4803310000D+01  0.2375939567D+00
  0.1459330000D+01  0.8158538515D+00
 p    1  1.00
  0.4834560000D+00  0.1000000000D+01
 p    1  1.00
  0.1455850000D+00  0.1000000000D+01
 d    1  1.00
  0.6260000000D+00  0.1000000000D+01
  
   6 0
 s    6  1.00
  0.4563240000D+04  0.1966650249D-02
  0.6820240000D+03  0.1523060193D-01
  0.1549730000D+03  0.7612690966D-01
  0.4445530000D+02  0.2608010331D+00
  0.1302900000D+02  0.6164620782D+00
  0.1827730000D+01  0.2210060280D+00
 s    3  1.00
  0.2096420000D+02  0.1146600807D+00
  0.4803310000D+01  0.9199996477D+00
  0.1459330000D+01 -0.3030682134D-02
 s    1  1.00
  0.4834560000D+00  0.1000000000D+01
 s    1  1.00
  0.1455850000D+00  0.1000000000D+01
 p    3  1.00
  0.2096420000D+02  0.4024869267D-01
  0.4803310000D+01  0.2375939567D+00
  0.1459330000D+01  0.8158538515D+00
 p    1  1.00
  0.4834560000D+00  0.1000000000D+01
 p    1  1.00
  0.1455850000D+00  0.1000000000D+01
 d    1  1.00
  0.6260000000D+00  0.1000000000D+01
  
   7 0
 s    3  1.00
  0.3386500000D+02  0.2549381454D-01
  0.5094790000D+01  0.1903731086D+00
  0.1158790000D+01  0.8521614860D+00
 s    1  1.00
  0.3258400000D+00  0.1000000000D+01
 s    1  1.00
  0.1027410000D+00  0.1000000000D+01
 p    1  1.00
  0.7500000000D+00  0.1000000000D+01
  
   8 0
 s    3  1.00
  0.3386500000D+02  0.2549381454D-01
  0.5094790000D+01  0.1903731086D+00
  0.1158790000D+01  0.8521614860D+00
 s    1  1.00
  0.3258400000D+00  0.1000000000D+01
 s    1  1.00
  0.1027410000D+00  0.1000000000D+01
 p    1  1.00
  0.7500000000D+00  0.1000000000D+01
  
   9 0
 s    3  1.00
  0.3386500000D+02  0.2549381454D-01
  0.5094790000D+01  0.1903731086D+00
  0.1158790000D+01  0.8521614860D+00
 s    1  1.00
  0.3258400000D+00  0.1000000000D+01
 s    1  1.00
  0.1027410000D+00  0.1000000000D+01
 p    1  1.00
  0.7500000000D+00  0.1000000000D+01
  
  10 0
 s    3  1.00
  0.3386500000D+02  0.2549381454D-01
  0.5094790000D+01  0.1903731086D+00
  0.1158790000D+01  0.8521614860D+00
 s    1  1.00
  0.3258400000D+00  0.1000000000D+01
 s    1  1.00
  0.1027410000D+00  0.1000000000D+01
 p    1  1.00
  0.7500000000D+00  0.1000000000D+01
  
  11 0
 s    3  1.00
  0.3386500000D+02  0.2549381454D-01
  0.5094790000D+01  0.1903731086D+00
  0.1158790000D+01  0.8521614860D+00
 s    1  1.00
  0.3258400000D+00  0.1000000000D+01
 s    1  1.00
  0.1027410000D+00  0.1000000000D+01
 p    1  1.00
  0.7500000000D+00  0.1000000000D+01
  
  12 0
 s    3  1.00
  0.3386500000D+02  0.2549381454D-01
  0.5094790000D+01  0.1903731086D+00
  0.1158790000D+01  0.8521614860D+00
 s    1  1.00
  0.3258400000D+00  0.1000000000D+01
 s    1  1.00
  0.1027410000D+00  0.1000000000D+01
 p    1  1.00
  0.7500000000D+00  0.1000000000D+01
  
  13 0
 s    3  1.00
  0.3386500000D+02  0.2549381454D-01
  0.5094790000D+01  0.1903731086D+00
  0.1158790000D+01  0.8521614860D+00
 s    1  1.00
  0.3258400000D+00  0.1000000000D+01
 s    1  1.00
  0.1027410000D+00  0.1000000000D+01
 p    1  1.00
  0.7500000000D+00  0.1000000000D+01
  
  14 0
 s    3  1.00
  0.3386500000D+02  0.2549381454D-01
  0.5094790000D+01  0.1903731086D+00
  0.1158790000D+01  0.8521614860D+00
 s    1  1.00
  0.3258400000D+00  0.1000000000D+01
 s    1  1.00
  0.1027410000D+00  0.1000000000D+01
 p    1  1.00
  0.7500000000D+00  0.1000000000D+01
  
  15 0
 s    3  1.00
  0.3386500000D+02  0.2549381454D-01
  0.5094790000D+01  0.1903731086D+00
  0.1158790000D+01  0.8521614860D+00
 s    1  1.00
  0.3258400000D+00  0.1000000000D+01
 s    1  1.00
  0.1027410000D+00  0.1000000000D+01
 p    1  1.00
  0.7500000000D+00  0.1000000000D+01
  
  16 0
 s    3  1.00
  0.3386500000D+02  0.2549381454D-01
  0.5094790000D+01  0.1903731086D+00
  0.1158790000D+01  0.8521614860D+00
 s    1  1.00
  0.3258400000D+00  0.1000000000D+01
 s    1  1.00
  0.1027410000D+00  0.1000000000D+01
 p    1  1.00
  0.7500000000D+00  0.1000000000D+01
  
  17 0
 s    3  1.00
  0.3386500000D+02  0.2549381454D-01
  0.5094790000D+01  0.1903731086D+00
  0.1158790000D+01  0.8521614860D+00
 s    1  1.00
  0.3258400000D+00  0.1000000000D+01
 s    1  1.00
  0.1027410000D+00  0.1000000000D+01
 p    1  1.00
  0.7500000000D+00  0.1000000000D+01
  
  18 0
 s    3  1.00
  0.3386500000D+02  0.2549381454D-01
  0.5094790000D+01  0.1903731086D+00
  0.1158790000D+01  0.8521614860D+00
 s    1  1.00
  0.3258400000D+00  0.1000000000D+01
 s    1  1.00
  0.1027410000D+00  0.1000000000D+01
 p    1  1.00
  0.7500000000D+00  0.1000000000D+01


[MO]
 Sym=      1.1
 Ene=     -11.2107
 Spin= Alpha
 Occup=    2.000000
1 0.19351215036300
2 0.16020539690630
3 0.001677318479906
4 -0.000115520391711
5 -0.000034236423919
6 0.000050591620871
7 0.000002371021383
8 -0.000090443258168
9 0.000123762728176
10 -0.000011362975003
11 -0.000003058650659
12 0.000113796618951
13 0.000015281323164
14 -0.000032009944642
15 0.000017389599060
16 0.000014620345582
17 -0.000015573958372
18 -0.000006524625416
19 -0.000024558202160
20 0.29021487276288
21 0.24029242305464
22 0.002423971235896
23 -0.000818153354908
24 0.000000188606560
25 -0.000000474773387
26 0.000049507253617
27 0.000000681116997
28 -0.000002050098922
29 0.000093855637767
30 0.000000019981503
31 -0.000001955503107
32 -0.000130810916573
33 -0.000006057051582
34 0.000003113908523
35 0.000002943143059
36 0.000004633903341
37 0.000000390916581
38 -0.000000968153684
39 0.18986337432946
40 0.15718440973320
41 0.001644867564418
42 -0.000103050722589
43 0.000033725810723
44 -0.000050506940060
45 0.000001562698830
46 0.000088788375915
47 -0.000123541664768
48 -0.000014208242115
49 0.000000629187369
50 -0.000120253430003
51 0.000017180898603
52 -0.000031965424212
53 0.000017828901076
54 0.000014136523136
55 -0.000015845420424
56 0.000005810310596
57 0.000025432329208
58 0.18975582054628
59 0.15709500540281
60 0.001646300091725
61 -0.000107437412110
62 -0.000034007326657
63 -0.000050845338487
64 -0.000001331150197
65 -0.000089462331034
66 -0.000124997531189
67 0.000015316190744
68 -0.000000676527832
69 -0.000117973592345
70 -0.000014261256449
71 -0.000032376052021
72 0.000018267833034
73 0.000014108218987
74 0.000016136644699
75 0.000005510072044
76 -0.000026023132729
77 0.29289828259450
78 0.24251449791483
79 0.002445220030798
80 -0.000823200828545
81 -0.000000159986564
82 -0.000000892328248
83 -0.000049628933622
84 -0.000000523397320
85 -0.000002382349187
86 -0.000094078510882
87 0.000000741719515
88 -0.000001951112202
89 0.000130448170446
90 -0.000005737608736
91 0.000002676307261
92 0.000003061301474
93 -0.000004883869949
94 0.000000502737998
95 0.000001003543679
96 0.19438614035954
97 0.16092893942247
98 0.001685473187675
99 -0.000121624888360
100 0.000034191515112
101 0.000051130104617
102 -0.000001971678205
103 0.000090421235682
104 0.000125217829099
105 0.000012644590655
106 0.000002028786648
107 0.000112943155287
108 -0.000012372838514
109 -0.000032358541382
110 0.000018034634034
111 0.000014323907348
112 0.000015667845465
113 -0.000006165329977
114 0.000025001776143
115 0.000112926423470
116 0.000089387342815
117 0.000089992957391
118 0.000006972411913
119 -0.000021074278210
120 0.000009703889827
121 0.000173713842935
122 0.000133402170508
123 0.000091388479037
124 -0.000012509750410
125 -0.000002308479134
126 0.000033379040051
127 0.000173903423332
128 0.000132184522121
129 0.000090958193644
130 0.000012453410326
131 0.000002275449544
132 0.000033031605084
133 0.000115778416513
134 0.000054789329389
135 0.000078006136013
136 0.000030616711952
137 0.000008571451736
138 0.000002724397242
139 0.000115305449107
140 0.000053415063058
141 0.000077876747300
142 -0.000030342743525
143 0.000008391532307
144 -0.000002743309868
145 0.000113250339460
146 0.000050063853577
147 0.000075893428981
148 -0.000029772777502
149 -0.000007972047097
150 0.000002839810212
151 0.000112875310173
152 0.000089135117650
153 0.000088854242530
154 -0.000007018607679
155 -0.000021144869533
156 -0.000009695891579
157 0.000175261051246
158 0.000134849589815
159 0.000092566538227
160 0.000012672718418
161 -0.000002407252046
162 -0.000033574748829
163 0.000175542832469
164 0.000132797413269
165 0.000091949209442
166 -0.000012414524231
167 0.000002215930397
168 -0.000033203677049
169 0.000115904465860
170 0.000089053458248
171 0.000088878684700
172 0.000007002005565
173 0.000021194287147
174 -0.000009860626167
175 0.000115361228330
176 0.000088836375513
177 0.000089194059580
178 -0.000006999377581
179 0.000021123920772
180 0.000009788893687
181 0.000113446498002
182 0.000048464556669
183 0.000076078555433
184 0.000029421354344
185 -0.000007852681524
186 -0.000002849249352
 Sym=      2.1
 Ene=     -11.2106
 Spin= Alpha
 Occup=    2.000000
1 0.12281243649982
2 0.10166936639219
3 0.001249003268778
4 -0.001746506867365
5 -0.000008836649192
6 0.000059746439197
7 -0.000053965148062
8 -0.000018102312479
9 0.000205556641038
10 -0.000201999407215
11 0.000190033606971
12 -0.000469115568957
13 -0.000587501201650
14 -0.000052726216440
15 0.000090809302274
16 -0.000038083085834
17 -0.000021790241602
18 0.000062398772487
19 -0.000058744057288
20 0.35967404100046
21 0.29782301592045
22 0.002896069655424
23 0.000001347921028
24 0.000000056067793
25 -0.000000050365380
26 0.000027994450945
27 0.000000016372330
28 0.000000137279792
29 0.000113891781718
30 -0.000000499660989
31 0.000000574147826
32 0.000248466220534
33 0.000030526484982
34 -0.000044330097795
35 0.000013803612813
36 0.000018153033042
37 -0.000000035804394
38 0.000000122413758
39 0.12276468608270
40 0.10162954474400
41 0.001250046118276
42 -0.001744695270909
43 0.000009047550163
44 -0.000059778867816
45 -0.000053515520404
46 0.000018477047523
47 -0.000205839115374
48 -0.000200606210380
49 -0.000189141639641
50 0.000471168355171
51 -0.000586385291576
52 -0.000052916732808
53 0.000090606832175
54 -0.000037690099367
55 -0.000021667977806
56 -0.000061905435891
57 0.000058622996787
58 -0.11955021532739
59 -0.098968007411246
60 -0.001222967408286
61 0.001735267682097
62 0.000008782701963
63 0.000059445842447
64 -0.000053998298291
65 0.000017715331115
66 0.000205432407510
67 -0.000202226877671
68 -0.000189285531477
69 -0.000469696386461
70 -0.000586958134785
71 0.000052714724763
72 -0.000090593457039
73 0.000037878732276
74 -0.000021964578063
75 0.000062444547408
76 0.000059062154415
77 -0.35868745804608
78 -0.29700639431095
79 -0.002887310589000
80 0.000002908279940
81 0.000000140474915
82 0.000000654716830
83 0.000027550917651
84 0.000000089673883
85 0.000000988796271
86 0.000112686896072
87 -0.000001956523002
88 0.000001708259726
89 0.000246825287922
90 -0.000030882548828
91 0.000044646353862
92 -0.000013763805033
93 0.000018355427697
94 -0.000000353713051
95 -0.000000392562320
96 -0.12198877960174
97 -0.10098744406897
98 -0.001241903469670
99 0.001744458569079
100 -0.000008605865611
101 -0.000059614807740
102 -0.000053927040061
103 -0.000017550210465
104 -0.000205577700451
105 -0.000202012928202
106 0.000188994679845
107 0.000468747740260
108 -0.000588368946883
109 0.000052716828211
110 -0.000090921820067
111 0.000038204991856
112 -0.000021556910240
113 -0.000062249147156
114 -0.000058657600318
115 0.000074377435766
116 0.000056439091424
117 -0.000115349588325
118 0.000010313706136
119 -0.000019681177517
120 0.000009766643972
121 0.000213642947895
122 0.000109652030169
123 0.000145177740284
124 -0.000012675887376
125 -0.000001734931258
126 0.000026095402785
127 0.000213637009670
128 0.000109542308585
129 0.000145260794212
130 0.000012723019129
131 0.000001725239130
132 0.000026138064225
133 -0.000052583848666
134 -0.000352398915994
135 -0.000000633910170
136 -0.000061314992148
137 -0.000031584262704