[Molden Format]
[Molpro variables]
_NUMVAR=  1041.000000000000    
_AVOGAD= 0.6022140760000000E+24
_BOLTZ= 0.1380649000000000E-22
_CLIGHTSI=  299792458.0000000    
_JOULE= 0.4359744722207100E-17
_JPCAL=  4.184000000000000    
_PLANCK= 0.6626070150000000E-33
_BOHR= 0.5291772109030000E-10
_ECHARG= 0.1602176634000000E-18
_ENULL= 0.8854187812800001E-11
_MU= 0.1660539066600000E-26
_EMASS= 0.9109383701500001E-30
_AMU2AU=  1822.888486217313    
_CLIGHT=  29979245800.00000    
_EV= 0.3674932217565494E-01
_KJOULE= 0.3808798847133432E-03
_KJOULE/MOL= 0.3808798847133432E-03
_CM= 0.4556335252912009E-05
_CM-1= 0.4556335252912009E-05
_DEB2SI= 0.3335640951981520E-29
_KCAL= 0.1593601437640628E-02
_KCAL/MOL= 0.1593601437640628E-02
_KELVIN= 0.3166811563455608E-05
_HERTZ= 0.1519829846057038E-15
_HZ= 0.1519829846057038E-15
_TOA= 0.5291772109030000    
_TOANG= 0.5291772109030000    
_TORAD= 0.1745329251994330E-01
_TOCM=  219474.6313631965    
_TODEBYE=  2.541746473194078    
_TOE= 0.4803204712570263E-09
_TOEV=  27.21138624598803    
_TOHERTZ=  6579683920501656.    
_TOHZ=  6579683920501656.    
_TOK=  315775.0248040668    
_TOKCAL=  627.5094740630558    
_TOKELVIN=  315775.0248040668    
_TOKJ=  2625.499639479825    
_TOKJOULE=  2625.499639479825    
_TOKG= 0.1660539066600000E-26
_ANG=  1.889726124625770    
_ANGSTROM=  1.889726124625770    
_RPAREF=  0.000000000000000    
_RPADISS=  0.000000000000000    
_IGNORE_UNDEF=  2.000000000000000    
_STRICTCHECK=  0.000000000000000    
!SEWARD=  0.000000000000000    
!MULTI=  0.000000000000000    
!DFMULTI=  0.000000000000000    
_SEW_ONEEL=  0.000000000000000    
_CPPDONE=FALSE
_DKROLL_DONE=  0.000000000000000    
_FNUC_DONE=  0.000000000000000    
_FOCKDONE=TRUE
_GRADONE=FALSE
_HESSDONE=TRUE
_INTDONE=TRUE
_SCFDONE=TRUE
_MODUL_BLOCK=FALSE
_MODUL_SLATER=FALSE
_MODUL_MRCC=FALSE
_MODUL_NBO6=FALSE
_MODUL_NECI=FALSE
_MODUL_AIMS=TRUE
_MODUL_HDF5=FALSE
_MODUL_GECCO=FALSE
_ISWINDOWS=FALSE
_MRCC_EXEC=
_FITC_AO_SAVED=FALSE
_FITC_MO_SAVED=FALSE
_SHARED_FS=TRUE
_LSTYP=SEWARD
_INTYP=INTS
_GEOMTYP=ZMAT
_GRADTYP=ALASKA
_DIRECT=FALSE
_DKHO= -1.000000000000000    
_FNUC=  0.000000000000000    
_SYNCM=  0.000000000000000    
_BASIS=VTZ
_ZCENTRE=MASS
_ZORIENT=  1.000000000000000    
_NELEC=  10.00000000000000    
!SPIN=  0.000000000000000    
_OPTCONV= 0.2223510979505806E-06
_QSDSTEP=  0.000000000000000    
_QSDIRC=  0.000000000000000    
_PROGRAM=FREQ
_CPUSTEP=  0.000000000000000    
_SYSSTEP=  0.000000000000000    
_WALLSTEP=  0.000000000000000    
!DFMP2=  0.000000000000000    
!DFSCF=  0.000000000000000    
!SCSGRD=  0.000000000000000    
_NCEN=  3.000000000000000    
_CPUTOT=  279.7800000000000    
_CPUCCSD=  0.000000000000000    
_SYSCCSD=  0.000000000000000    
_WALLCCSD=  0.000000000000000    
_CPUF12=  0.000000000000000    
_SYSF12=  0.000000000000000    
_WALLF12=  0.000000000000000    
_CPUF12B=  0.000000000000000    
_SYSF12B=  0.000000000000000    
_WALLF12B=  0.000000000000000    
_CPUTRANS=  0.000000000000000    
_SYSTRANS=  0.000000000000000    
_WALLTRANS=  0.000000000000000    
_DFTEXFAC=  1.000000000000000    
_DMX=  0.000000000000000    
_DMY=  0.000000000000000    
_DMZ= 0.7580827895487429    
_DMX_SCF=  0.000000000000000    
_DMY_SCF=  0.000000000000000    
_DMZ_SCF= 0.8005465273998501    
_FREQUENCIES= 0.5477603867530156E-04
_HOMO=  1.200000000000000    
_EHOMO=-0.5046906647420634    
_LUMO=  4.100000000000000    
_ELUMO= 0.1421622672356258    
_ENERGC= -76.32455657027957    
_ENERGR= -76.05713405099495    
_ENERGY= -76.32455657027957    
_ENERGY_METHOD=CCSD
_ENERGY_BASIS=cc-pVTZ
_GEOMETRY_METHOD=
_GEOMETRY_BASIS=
_ENUC=  9.197243951039400    
_FREQSTEP=  10.00000000000000    
_GRADENERG= -76.32452184065967    
_GRADEXFAC=  9999.000000000000    
_GRADMETHOD=  12.00000000000000    
_NMRMETHOD=  0.000000000000000    
_NMRMAGNET=  0.000000000000000    
_GRADRECORD=TRUE
_VIRIAL=-0.1405267385274377E-03
!GRID_FREEZE= -1.000000000000000    
!NEESE_INDEX=  0.000000000000000    
_ITERATIONS=  9.000000000000000    
_LASTNELEC=  10.00000000000000    
_LASTSPIN=  0.000000000000000    
_LASTSYM=  1.000000000000000    
_MPP_PROG=  1.000000000000000    
_MSNSTATES=  0.000000000000000    
_RS2PHASE=  0.000000000000000    
_IPROC_MPP=  0.000000000000000    
_IPROC_MPPX=  0.000000000000000    
_NPROC_MPP=  6.000000000000000    
_NPROC_MPPX=  6.000000000000000    
_NPROC_SMP=  6.000000000000000    
_NUMSTEP=  0.000000000000000    
_OPTCONVMX= 0.1423176079262376E-06
_OPTCONVRMS= 0.1283744662591515E-06
_OPTGRAD= 0.1118200367094746E-06
_OPTGRADMX= 0.9050702232116237E-07
_OPTGRADRMS= 0.3727334556982486E-07
_OPTSTEP=  6.000000000000000    
_ORBITAL=  2100.200000000000    
_PI=  3.141592653589793    
_SEIG_MIN= 0.2574664698286432E-02
_SEWPROP=TRUE
_STATUS= -1.000000000000000    
_SYSTOT=  3.210000000000000    
_VERSION=  2022003.000000000    
_WALLTOT=  244.4100000000000    
_ZPE= 0.2171874945641725E-01
_DATE=27-Aug-25
_LASTORB=0
_METHODC=CCSD
_OUTPUT=/home/lme/overlap_integral_gaussian/molpro_files/h2o/ccsd/VTZ/h2o_vtz_ccsd.out
_PGROUP=C2v
_TIME=08:28:08
_LIBMOL=/usr/local/molpro/molpro_2022.3.0_sockets/lib/
_VIGRDC=  0.000000000000000    
!VIBCNT=  0.000000000000000    
!RGHFCNT=  0.000000000000000    
!SURFREC=  0.000000000000000    
!XSURFREC=  0.000000000000000    
!XPOLYREC=  0.000000000000000    
!ROTREC=  0.000000000000000    
!POLYREC=  0.000000000000000    
!DIPREC=  0.000000000000000    
!DIP4DREC=  0.000000000000000    
!DIPROT=  0.000000000000000    
!DIP4DROT=  0.000000000000000    
!PTREC=  0.000000000000000    
!PT4DREC=  0.000000000000000    
!VSCFREC=  0.000000000000000    
!VCIREC=  0.000000000000000    
!PVCIREC=  0.000000000000000    
!VMP2REC=  0.000000000000000    
!VMCSCFREC=  0.000000000000000    
!VMRCIREC=  0.000000000000000    
!VIBSTATEREC=  0.000000000000000    
!VIBSTATECNT=  0.000000000000000    
!VIBINFO=  0.000000000000000    
!GAREC=  0.000000000000000    
!SCFORB=  21002.00000000000    
!CIOCC=  3.000000000000000    
!CICORE=  1.000000000000000    
!DEFCORE=  1.000000000000000    
!SCORE=  0.000000000000000    
!CICLOS=  3.000000000000000    
!CIISTSYM=  1.000000000000000    
!CIISTMS2=  0.000000000000000    
!CIISTNEL=  8.000000000000000    
!NEWMOL= -1.000000000000000    
!NEWSYM= -1.000000000000000    
_SLFILES=slscratch
_NGSSTO=  9.000000000000000    
_SIN=SIN
_COS=COS
_TAN=TAN
_ACOS=ACOS
_ASIN=ASIN
_ATAN=ATAN
_COSH=COSH
_SINH=SINH
_TANH=TANH
_ABS=ABS
_MOD=MOD
_ERF=ERF
_REFC=REFC
_ERFC=ERFC
_HYPOT=HYPOT
_J0=J0
_J1=J1
_JN=JN
_GAMMA=GAMMA
_LGAMMA=LGAMMA
_Y0=Y0
_Y1=Y1
_YN=YN
_EXP=EXP
_LOG=LOG
_LOG10=LOG10
_SQRT=SQRT
_INT=INT
_NINT=NINT
_MAX=MAX
_MIN=MIN
_COSMO=  0.000000000000000    
_COSMOIT=  0.000000000000000    
_COSMOES=  0.000000000000000    
_COSMOEDS=  0.000000000000000    
_COSMOEC=  0.000000000000000    
_COSMOEDCORR=  0.000000000000000    
_FEPSI=  1.000000000000000    
_SL_IsMM=  0.000000000000000    
_SL_NSYM=  4.000000000000000    
_SL_System_BitSw=  0.000000000000000    
_SL_Unique_atoms=  0.000000000000000    
_SL_GRAD=  0.000000000000000    
_SL_MAXUPD_Hess=  5.000000000000000    
_SL_N_PRINT_COD=  5.000000000000000    
_SL_PRINT_CODES=  0.000000000000000    
_SL_BasType=  0.000000000000000    
_SL_Energy_Pred=  0.000000000000000    
_SL_New_Coords=  0.000000000000000    
_SL_Total_Nuclea=  0.000000000000000    
_SL_Highest_Mltp=  0.000000000000000    
_SL_Ref_Geom=  0.000000000000000    
_SL_Symmetry_ope=  4.000000000000000    
_SL_agrad=  0.000000000000000    
_SL_GrdMax=  0.000000000000000    
_SL_GrdNorm=  0.000000000000000    
_SL_GrdRMS=  0.000000000000000    
_SL_Hss_Q=  0.000000000000000    
_SL_Hss_X=  0.000000000000000    
_SL_BMxOld=  0.000000000000000    
_SL_KtB=  0.000000000000000    
_SL_TROld=  0.000000000000000    
_SL_No_of_Intern=  0.000000000000000    
_SL_Hess=  0.000000000000000    
_SL_K=  0.000000000000000    
!LATTICE= -1.000000000000000    
!NEWLATTICE=  0.000000000000000    
!LATGRAD_VAR=FALSE
!SEW_LATTICE=  1.000000000000000    
!AIC_ONEEL=  0.000000000000000    
!LOCAL=  0.000000000000000    
!SAVEDOM= -1.000000000000000    
!RESTDOM= -1.000000000000000    
!SAVEDOM_HF= -1.000000000000000    
!RESTDOM_HF= -1.000000000000000    
!HESSREC=  5300.200000000000    
!FREQREC=  5400.200000000000    
!NMODREC=  5450.200000000000    
!GTASKS=  0.000000000000000    
!HTASKS=  0.000000000000000    
!SAVEDOM_EOM= -1.000000000000000    
!RESTDOM_EOM= -1.000000000000000    
!GRADSTATE= -1.000000000000000    
!DEBUG=  0.000000000000000    
!CFIT_CPHF=  0.000000000000000    
!RDOMAUX_CPHF=  0.000000000000000    
!THRAO_CPHF= 0.1000000000000000E-11
!THRMO_CPHF= 0.1000000000000000E-11
!THROV_CPHF= 0.1000000000000000E-11
!THRSW_CPHF= 0.1000000000000000E-11
!THRPROD_CPHF= 0.1000000000000000E-11
!THRAOPR_CPHF= 0.1000000000000000E-11
!CFIT_SCFGRD=  0.000000000000000    
!RDOMAUX_SCFGRD=  0.000000000000000    
!THRAO_SCFGRD= 0.1000000000000000E-11
!THRMO_SCFGRD= 0.1000000000000000E-11
!THROV_SCFGRD= 0.1000000000000000E-11
!THRSW_SCFGRD= 0.1000000000000000E-11
!THRPROD_SCFGRD= 0.1000000000000000E-11
!THRAOPR_SCFGRD= 0.1000000000000000E-11
!LOCFIT_SCF=  0.000000000000000    
!LOCFIT_MP2=  0.000000000000000    
_RIDOM=  0.000000000000000    
!CC2_METHOD=  0.000000000000000    
_BASIS2006=FALSE
_SVDDEL= -1.000000000000000    
_SVDDELA= -1.000000000000000    
_SVDDELP= -1.000000000000000    
_SVDDELF= -1.000000000000000    
_SVDDELS= -1.000000000000000    
_SVDDEL_ABS= -1.000000000000000    
_SVDDELA_ABS= -1.000000000000000    
_SVDDELP_ABS= -1.000000000000000    
_SVDDELF_ABS= -1.000000000000000    
_SVDDELS_ABS= -1.000000000000000    
_MAXBASIS=  0.000000000000000    
!OPT_CONICAL=  0.000000000000000    
!CLEARSP_JGRID=  0.000000000000000    
_GRDHYBR=  0.000000000000000    
_STATEGRAD=  1.000000000000000    
_4EXT_NDISKS=  1.000000000000000    
!EMBEDFLAG=  1.000000000000000    
!EMBED=FALSE
!EMBED_F12=FALSE
!EMBEDNUC=  0.000000000000000    
_EMBEDENERGY=  0.000000000000000    
!EMBED_DFC=FALSE
!NUM_VOIDS=  0.000000000000000    
_IBODY=  0.000000000000000    
_EMBE_CORR=  0.000000000000000    
!EMBED_PROJ=FALSE
!EMB_PROJ_ZMU=  1000000.000000000    
!CORRECTION_HF=  0.000000000000000    
!EMBED_AORB=  0.000000000000000    
!EMBED_NACORR=  0.000000000000000    
!EMBED_MP2=FALSE
!EMBED_TRUNC_PERTURBATION=FALSE
!EMBED_FROZEN=  0.000000000000000    
!EMBED_ACTIVE=  0.000000000000000    
_CHANGE_BASIS=FALSE
_RESTORE_BASIS=FALSE
_FIX_EMBED_GUESS=FALSE
_EMBED_SCF=FALSE
_HUZINAGA_T=FALSE
_HUZINAGA_F=FALSE
_HUZINAGA=FALSE
_HUZINAGA_CORRECT=FALSE
!FASTLATGRAD=  1.000000000000000    
!FASTVLAMBDA= -1.000000000000000    
!IFORCE= -1.000000000000000    
!USESYM= -1.000000000000000    
_SINDEX=  0.000000000000000    
_AVDOM_OSV=  0.000000000000000    
_AVDOM_PNO=  0.000000000000000    
_AVDOM_PAO=  0.000000000000000    
_AVDOM_LMO=  0.000000000000000    
!CPP_PROG=CCSD-GRAD
_CC2OSV_FLAG=  0.000000000000000    
_EOMCCSD_CONV=FALSE
_TMADC2_FLAG=FALSE
_PROPADC2_FLAG=FALSE
_LEN_VirQ=  0.000000000000000    
_GRDCC2LR_FLAG=FALSE
_GRDADC2_FLAG=FALSE
_RO_VGLOBAL=  0.000000000000000    
_OPT=FALSE
_FREQ=FALSE
_HESS=FALSE
_CMRCC_callName=EMPTY
_CMRCC_callCount=  0.000000000000000    
_GECCO_CIROOT=  1.000000000000000    
_SYM_CATION=  2.000000000000000    
_MON_A=FALSE
_MON_B=FALSE
GX1=  0.000000000000000    
GY1= 0.7536677745867091    
GZ1= 0.5239400961657651    
GX2=  0.000000000000000    
GY2=  0.000000000000000    
GZ2=-0.6602599544708437E-01
GX3=  0.000000000000000    
GY3=-0.7536677745867091    
GZ3= 0.5239400961657651    
HX1=  0.000000000000000    
HY1=  1.424225682925070    
HZ1= 0.9901032874633846    
OX2=  0.000000000000000    
OY2=  0.000000000000000    
OZ2=-0.1247710485007775    
HX3=  0.000000000000000    
HY3= -1.424225682925070    
HZ3= 0.9901032874633846    
[Atoms] Angs
H     1    1         0.0000000000        0.7536677746        0.5239400962
O     2    8         0.0000000000        0.0000000000       -0.0660259954
H     3    1         0.0000000000       -0.7536677746        0.5239400962
[GTO]
   1 0
 s    5  1.00
  0.3387000000D+02  0.6067999217D-02
  0.5095000000D+01  0.4530799416D-01
  0.1159000000D+01  0.2028219738D+00
  0.3258000000D+00  0.5039029350D+00
  0.1027000000D+00  0.3834209505D+00
 s    5  1.00
  0.3387000000D+02  0.0000000000D+00
  0.5095000000D+01  0.0000000000D+00
  0.1159000000D+01  0.0000000000D+00
  0.3258000000D+00  0.1000000000D+01
  0.1027000000D+00  0.0000000000D+00
 s    5  1.00
  0.3387000000D+02  0.0000000000D+00
  0.5095000000D+01  0.0000000000D+00
  0.1159000000D+01  0.0000000000D+00
  0.3258000000D+00  0.0000000000D+00
  0.1027000000D+00  0.1000000000D+01
 p    1  1.00
  0.1407000000D+01  0.1000000000D+01
 p    1  1.00
  0.3880000000D+00  0.1000000000D+01
 d    1  1.00
  0.1057000000D+01  0.1000000000D+01
  
   3 0
 s    5  1.00
  0.3387000000D+02  0.6067999217D-02
  0.5095000000D+01  0.4530799416D-01
  0.1159000000D+01  0.2028219738D+00
  0.3258000000D+00  0.5039029350D+00
  0.1027000000D+00  0.3834209505D+00
 s    5  1.00
  0.3387000000D+02  0.0000000000D+00
  0.5095000000D+01  0.0000000000D+00
  0.1159000000D+01  0.0000000000D+00
  0.3258000000D+00  0.1000000000D+01
  0.1027000000D+00  0.0000000000D+00
 s    5  1.00
  0.3387000000D+02  0.0000000000D+00
  0.5095000000D+01  0.0000000000D+00
  0.1159000000D+01  0.0000000000D+00
  0.3258000000D+00  0.0000000000D+00
  0.1027000000D+00  0.1000000000D+01
 p    1  1.00
  0.1407000000D+01  0.1000000000D+01
 p    1  1.00
  0.3880000000D+00  0.1000000000D+01
 d    1  1.00
  0.1057000000D+01  0.1000000000D+01
  
   2 0
 s   10  1.00
  0.1533000000D+05  0.5079996682D-03
  0.2299000000D+04  0.3928997434D-02
  0.5224000000D+03  0.2024298678D-01
  0.1473000000D+03  0.7918094828D-01
  0.4755000000D+02  0.2306868493D+00
  0.1676000000D+02  0.4331177171D+00
  0.6207000000D+01  0.3502597712D+00
  0.1752000000D+01  0.4272797209D-01
  0.6882000000D+00 -0.8153994674D-02
  0.2384000000D+00  0.2380998445D-02
 s   10  1.00
  0.1533000000D+05 -0.1150000604D-03
  0.2299000000D+04 -0.8950004697D-03
  0.5224000000D+03 -0.4636002433D-02
  0.1473000000D+03 -0.1872400983D-01
  0.4755000000D+02 -0.5846303068D-01
  0.1676000000D+02 -0.1364630716D+00
  0.6207000000D+01 -0.1757400922D+00
  0.1752000000D+01  0.1609340845D+00
  0.6882000000D+00  0.6034183167D+00
  0.2384000000D+00  0.3787651988D+00
 s   10  1.00
  0.1533000000D+05  0.0000000000D+00
  0.2299000000D+04  0.0000000000D+00
  0.5224000000D+03  0.0000000000D+00
  0.1473000000D+03  0.0000000000D+00
  0.4755000000D+02  0.0000000000D+00
  0.1676000000D+02  0.0000000000D+00
  0.6207000000D+01  0.0000000000D+00
  0.1752000000D+01  0.1000000000D+01
  0.6882000000D+00  0.0000000000D+00
  0.2384000000D+00  0.0000000000D+00
 s   10  1.00
  0.1533000000D+05  0.0000000000D+00
  0.2299000000D+04  0.0000000000D+00
  0.5224000000D+03  0.0000000000D+00
  0.1473000000D+03  0.0000000000D+00
  0.4755000000D+02  0.0000000000D+00
  0.1676000000D+02  0.0000000000D+00
  0.6207000000D+01  0.0000000000D+00
  0.1752000000D+01  0.0000000000D+00
  0.6882000000D+00  0.0000000000D+00
  0.2384000000D+00  0.1000000000D+01
 p    5  1.00
  0.3446000000D+02  0.1592799074D-01
  0.7749000000D+01  0.9973994203D-01
  0.2280000000D+01  0.3104918195D+00
  0.7156000000D+00  0.4910257146D+00
  0.2140000000D+00  0.3363368045D+00
 p    5  1.00
  0.3446000000D+02  0.0000000000D+00
  0.7749000000D+01  0.0000000000D+00
  0.2280000000D+01  0.0000000000D+00
  0.7156000000D+00  0.1000000000D+01
  0.2140000000D+00  0.0000000000D+00
 p    5  1.00
  0.3446000000D+02  0.0000000000D+00
  0.7749000000D+01  0.0000000000D+00
  0.2280000000D+01  0.0000000000D+00
  0.7156000000D+00  0.0000000000D+00
  0.2140000000D+00  0.1000000000D+01
 d    1  1.00
  0.2314000000D+01  0.1000000000D+01
 d    1  1.00
  0.6450000000D+00  0.1000000000D+01
 f    1  1.00
  0.1428000000D+01  0.1000000000D+01


[MO]
 Sym=      1.1
 Ene=     -20.5550
 Spin= Alpha
 Occup=    2.000000
1 0.002129506358266
2 -0.000078925711191
3 -0.001069185994459
4 0.0
5 -0.000234790124299
6 -0.000125124229486
7 0.0
8 -0.000443603967050
9 -0.000302888140581
10 0.000042379162487
11 0.000016717869797
12 -0.000059097032283
13 0.0
14 0.0
15 -0.000124761875516
16 0.002129506358266
17 -0.000078925711191
18 -0.001069185994459
19 0.0
20 0.000234790124299
21 -0.000125124229486
22 0.0
23 0.000443603967050
24 -0.000302888140581
25 0.000042379162487
26 0.000016717869797
27 -0.000059097032283
28 0.0
29 0.0
30 0.000124761875516
31 0.99930838771172
32 -0.001024037108830
33 0.000975160540021
34 -0.000777559798041
35 0.0
36 0.0
37 0.004906708083873
38 0.0
39 0.0
40 -0.003897619874999
41 0.0
42 0.0
43 -0.001798445388693
44 -0.000053692560951
45 0.000030073783958
46 0.000023618776994
47 0.0
48 0.0
49 0.0
50 0.000513378952354
51 -0.000334944245791
52 -0.000178434706562
53 0.0
54 0.0
55 0.0
56 0.0
57 0.0
58 0.000004832059526
59 0.0
60 0.0
61 0.000079910369517
62 0.0
63 0.0
64 -0.000086393257660
65 0.0
 Sym=      2.1
 Ene=      -1.3462
 Spin= Alpha
 Occup=    2.000000
1 0.37603073907804
2 -0.11642972267118
3 -0.13795859055346
4 0.0
5 -0.010491695520583
6 -0.007490801831682
7 0.0
8 -0.009840721530633
9 -0.005007518915943
10 -0.001176319247403
11 0.001215049199312
12 -0.000038729951910
13 0.0
14 0.0
15 0.001970147442013
16 0.37603073907804
17 -0.11642972267118
18 -0.13795859055346
19 0.0
20 0.010491695520583
21 -0.007490801831682
22 0.0
23 0.009840721530633
24 -0.005007518915943
25 -0.001176319247403
26 0.001215049199312
27 -0.000038729951910
28 0.0
29 0.0
30 -0.001970147442013
31 -0.008820176040613
32 0.86431721115116
33 -0.006597758389016
34 -0.044130914531277
35 0.0
36 0.0
37 0.11590488907006
38 0.0
39 0.0
40 0.007257468812038
41 0.0
42 0.0
43 -0.026509309670279
44 -0.003828450360673
45 0.002748020114431
46 0.001080430246242
47 0.0
48 0.0
49 0.0
50 -0.008041357819834
51 0.005025113331097
52 0.003016244488737
53 0.0
54 0.0
55 0.0
56 0.0
57 0.0
58 -0.000837709450865
59 0.0
60 0.0
61 -0.001907159953527
62 0.0
63 0.0
64 0.003031065120044
65 0.0
 Sym=      1.3
 Ene=      -0.7087
 Spin= Alpha
 Occup=    2.000000
1 0.59639563551289
2 -0.080598854581008
3 -0.16692208554781
4 0.0
5 -0.009408176970263
6 -0.012928431948419
7 0.0
8 -0.019400609171450
9 -0.024032995929553
10 -0.003741724401879
11 0.001680672719886
12 0.002061051681993
13 0.0
14 0.0
15 0.005781257590895
16 -0.59639563551289
17 0.080598854581008
18 0.16692208554781
19 0.0
20 -0.009408176970263
21 0.012928431948419
22 0.0
23 -0.019400609171450
24 0.024032995929553
25 0.003741724401879
26 -0.001680672719886
27 -0.002061051681993
28 0.0
29 0.0
30 0.005781257590895
31 0.0
32 0.0
33 0.0
34 0.0
35 0.0
36 0.73100252230360
37 0.0
38 0.0
39 -0.018769414700131
40 0.0
41 0.0
42 -0.086271567968970
43 0.0
44 0.0
45 0.0
46 0.0
47 0.0
48 0.0
49 0.013125941866054
50 0.0
51 0.0
52 0.0
53 0.0
54 0.0
55 0.022500147756615
56 0.0
57 0.002458105023551
58 0.0
59 0.0
60 -0.003564091158520
61 0.0
62 0.0
63 0.000266197201423
64 0.0
65 0.0
 Sym=      3.1
 Ene=      -0.5790
 Spin= Alpha
 Occup=    2.000000
1 0.36298812035514
2 -0.043105307148950
3 -0.11320030059272
4 0.0
5 -0.009576986601644
6 0.000626845829449
7 0.0
8 -0.021551550118143
9 0.012145633858790
10 -0.001759731918443
11 0.003956046150515
12 -0.002196314232072
13 0.0
14 0.0
15 0.000768861875032
16 0.36298812035514
17 -0.043105307148950
18 -0.11320030059272
19 0.0
20 0.009576986601644
21 0.000626845829449
22 0.0
23 0.021551550118143
24 0.012145633858790
25 -0.001759731918443
26 0.003956046150515
27 -0.002196314232072
28 0.0
29 0.0
30 -0.000768861875032
31 -0.002262811746541
32 -0.30884576998712
33 -0.004031585723668
34 -0.16211056715310
35 0.0
36 0.0
37 0.80783755760720
38 0.0
39 0.0
40 -0.014697391948821
41 0.0
42 0.0
43 0.004245718971540
44 -0.005617048521779
45 -0.000002808194459
46 0.005619856716238
47 0.0
48 0.0
49 0.0
50 -0.014088564457422
51 -0.004168816071366
52 0.018257380528788
53 0.0
54 0.0
55 0.0
56 0.0
57 0.0
58 0.000747645917641
59 0.0
60 0.0
61 -0.003199321711161
62 0.0
63 0.0
64 0.002196249454193
65 0.0
 Sym=      1.2
 Ene=      -0.5047
 Spin= Alpha
 Occup=    2.000000
1 0.0
2 0.0
3 0.0
4 0.010078055955846
5 0.0
6 0.0
7 0.031271407072153
8 0.0
9 0.0
10 0.0
11 0.0
12 0.0
13 -0.004144309308077
14 -0.002884058258533
15 0.0
16 0.0
17 0.0
18 0.0
19 0.010078055955846
20 0.0
21 0.0
22 0.031271407072153
23 0.0
24 0.0
25 0.0
26 0.0
27 0.0
28 0.004144309308077
29 -0.002884058258533
30 0.0
31 0.0
32 0.0
33 0.0
34 0.0
35 0.92281622103800
36 0.0
37 0.0
38 -0.008840771027819
39 0.0
40 0.0
41 0.065131182193058
42 0.0
43 0.0
44 0.0
45 0.0
46 0.0
47 0.0
48 0.005247205374952
49 0.0
50 0.0
51 0.0
52 0.0
53 0.0
54 0.018111301641571
55 0.0
56 -0.004138735816193
57 0.0
58 0.0
59 0.003795171181235
60 0.0
61 0.0
62 0.001757525594318
63 0.0
64 0.0
65 0.0
 Sym=      4.1
 Ene=       0.1422
 Spin= Alpha
 Occup=    0.000000
1 0.11343555839520
2 0.22547913529765
3 0.87755655027556
4 0.0
5 0.005710172803293
6 0.001607812097200
7 0.0
8 -0.14326830987257
9 -0.11144007835388
10 -0.009163296616529
11 0.005067455484658
12 0.004095841131871
13 0.0
14 0.0
15 0.017576022404905
16 0.11343555839520
17 0.22547913529765
18 0.87755655027556
19 0.0
20 -0.005710172803293
21 0.001607812097200
22 0.0
23 0.14326830987257
24 -0.11144007835388
25 -0.009163296616529
26 0.005067455484658
27 0.004095841131871
28 0.0
29 0.0
30 -0.017576022404905
31 0.030394632472805
32 -0.17712269040478
33 -0.011437910137371
34 -1.48331012017400
35 0.0
36 0.0
37 -0.20470131212337
38 0.0
39 0.0
40 -0.093894283526797
41 0.0
42 0.0
43 -0.39332208880712
44 -0.001544879469619
45 0.002554790754907
46 -0.001009911285288
47 0.0
48 0.0
49 0.0
50 0.048927068076426
51 -0.039693874302059
52 -0.009233193774367
53 0.0
54 0.0
55 0.0
56 0.0
57 0.0
58 0.004189637390375
59 0.0
60 0.0
61 0.004589745745650
62 0.0
63 0.0
64 -0.010210734149222
65 0.0
 Sym=      2.3
 Ene=       0.2042
 Spin= Alpha
 Occup=    0.000000
1 0.072053284255795
2 0.10105308018501
3 1.74374946988677
4 0.0
5 0.011933454720548
6 0.010753777430833
7 0.0
8 -0.13431694890300
9 -0.10850746261236
10 -0.007492000626964
11 0.008078100859232
12 -0.000586100232269
13 0.0
14 0.0
15 0.009408041430391
16 -0.072053284255795
17 -0.10105308018501
18 -1.74374946988677
19 0.0
20 0.011933454720548
21 -0.010753777430833
22 0.0
23 -0.13431694890300
24 0.10850746261236
25 0.007492000626964
26 -0.008078100859232
27 0.000586100232269
28 0.0
29 0.0
30 0.009408041430391
31 0.0
32 0.0
33 0.0
34 0.0
35 0.0
36 -0.35103205271184
37 0.0
38 0.0
39 -0.029391994403313
40 0.0
41 0.0
42 -0.72020709242523
43 0.0
44 0.0
45 0.0
46 0.0
47 0.0
48 0.0
49 0.002907426461241
50 0.0
51 0.0
52 0.0
53 0.0
54 0.0
55 -0.059788710403945
56 0.0
57 -0.001618593890965
58 0.0
59 0.0
60 0.003122515787983
61 0.0
62 0.0
63 -0.000950944207085
64 0.0
65 0.0
 Sym=      3.3
 Ene=       0.5432
 Spin= Alpha
 Occup=    0.000000
1 0.41683760917304
2 1.34985383664509
3 -0.74779692570203
4 0.0
5 -0.047871091988799
6 -0.030542737879311
7 0.0
8 -0.045676963171990
9 0.019535579349614
10 -0.010725380293074
11 0.015270584698210
12 -0.004545204405136
13 0.0
14 0.0
15 0.030096112738693
16 -0.41683760917304
17 -1.34985383664509
18 0.74779692570203
19 0.0
20 -0.047871091988799
21 0.030542737879311
22 0.0
23 -0.045676963171990
24 -0.019535579349614
25 0.010725380293074
26 -0.015270584698210
27 0.004545204405136
28 0.0
29 0.0
30 0.030096112738693
31 0.0
32 0.0
33 0.0
34 0.0
35 0.0
36 -0.27201563409340
37 0.0
38 0.0
39 -0.14680633819561
40 0.0
41 0.0
42 -1.16479794560356
43 0.0
44 0.0
45 0.0
46 0.0
47 0.0
48 0.0
49 0.027316383499716
50 0.0
51 0.0
52 0.0
53 0.0
54 0.0
55 -0.14251568910377
56 0.0
57 -0.003026319554416
58 0.0
59 0.0
60 0.020929665974235
61 0.0
62 0.0
63 -0.016869432227048
64 0.0
65 0.0
 Sym=      5.1
 Ene=       0.6046
 Spin= Alpha
 Occup=    0.000000
1 0.33682309919034
2 1.29990989190774
3 -0.70681492523624
4 0.0
5 -0.031597207562398
6 -0.017970754657669
7 0.0
8 0.19290619197808
9 -0.068900606045887
10 -0.014752395311033
11 0.002005348745256
12 0.012747046565777
13 0.0
14 0.0
15 0.010452791451073
16 0.33682309919034
17 1.29990989190774
18 -0.70681492523624
19 0.0
20 0.031597207562398
21 -0.017970754657669
22 0.0
23 -0.19290619197808
24 -0.068900606045887
25 -0.014752395311033
26 0.002005348745256
27 0.012747046565777
28 0.0
29 0.0
30 -0.010452791451073
31 -0.024895544547283
32 -0.34708343652487
33 0.028711613606369
34 -0.66766728864205
35 0.0
36 0.0
37 -0.23890516765779
38 0.0
39 0.0
40 -0.043760492555343
41 0.0
42 0.0
43 -0.63060006585070
44 -0.014515184737825
45 0.020160007570810
46 -0.005644822832985
47 0.0
48 0.0
49 0.0
50 0.029990526515723
51 -0.038200289926884
52 0.008209763411161
53 0.0
54 0.0
55 0.0
56 0.0
57 0.0
58 0.009517320213586
59 0.0
60 0.0
61 0.008852630086138
62 0.0
63 0.0
64 -0.021621455062864
65 0.0
 Sym=      6.1
 Ene=       0.6678
 Spin= Alpha
 Occup=    0.000000
1 0.14204863299708
2 -2.36353428445841
3 -0.52859593079911
4 0.0
5 0.023421107280663
6 0.013333888929405
7 0.0
8 0.94749092902029
9 0.61707795804095
10 0.042577901154791
11 -0.045716479302817
12 0.003138578148027
13 0.0
14 0.0
15 -0.063957112488323
16 0.14204863299708
17 -2.36353428445841
18 -0.52859593079911
19 0.0
20 -0.023421107280663
21 0.013333888929405
22 0.0
23 -0.94749092902029
24 0.61707795804095
25 0.042577901154791
26 -0.045716479302817
27 0.003138578148027
28 0.0
29 0.0
30 0.063957112488323
31 0.035680103702764
32 0.12701084046345
33 -0.062859879154292
34 4.57541405419611
35 0.0
36 0.0
37 -0.63882238803185
38 0.0
39 0.0
40 0.20990739158048
41 0.0
42 0.0
43 2.88957570143785
44 0.027550490512381
45 -0.011075594520652
46 -0.016474895991728
47 0.0
48 0.0
49 0.0
50 -0.28487817793296
51 0.19497506138421
52 0.089903116548751
53 0.0
54 0.0
55 0.0
56 0.0
57 0.0
58 -0.010793723806717
59 0.0
60 0.0
61 -0.019466688365822
62 0.0
63 0.0
64 0.033947988463128
65 0.0
 Sym=      2.2
 Ene=       0.7873
 Spin= Alpha
 Occup=    0.000000
1 0.0
2 0.0
3 0.0
4 -0.012488535035050
5 0.0
6 0.0
7 0.008239624863100
8 0.0
9 0.0
10 0.0
11 0.0
12 0.0
13 0.019621579720300
14 0.014094799724228
15 0.0
16 0.0
17 0.0
18 0.0
19 -0.012488535035050
20 0.0
21 0.0
22 0.008239624863100
23 0.0
24 0.0
25 0.0
26 0.0
27 0.0
28 -0.019621579720300
29 0.014094799724228
30 0.0
31 0.0
32 0.0
33 0.0
34 0.0
35 -0.66815921407634
36 0.0
37 0.0
38 -0.44442256689464
39 0.0
40 0.0
41 1.40051952991741
42 0.0
43 0.0
44 0.0
45 0.0
46 0.0
47 0.0
48 -0.008817909286780
49 0.0
50 0.0
51 0.0
52 0.0
53 0.0
54 0.036572979383285
55 0.0
56 -0.007041504355956
57 0.0
58 0.0
59 0.006201408379979
60 0.0
61 0.0
62 0.003245761062288
63 0.0
64 0.0
65 0.0
 Sym=      7.1
 Ene=       0.7977
 Spin= Alpha
 Occup=    0.000000
1 -0.037632379914190
2 0.94335011730694
3 -0.24176903354208
4 0.0
5 0.021480638392207
6 -0.037325888257579
7 0.0
8 -0.52676335197825
9 0.68920159260834
10 -0.004574306792079
11 0.047990333185574
12 -0.043416026393495
13 0.0
14 0.0
15 -0.025063058287536
16 -0.037632379914190
17 0.94335011730694
18 -0.24176903354208
19 0.0
20 -0.021480638392207
21 -0.037325888257579
22 0.0
23 0.52676335197825
24 0.68920159260834
25 -0.004574306792079
26 0.047990333185574
27 -0.043416026393495
28 0.0
29 0.0
30 0.025063058287536
31 -0.016431679127590
32 -0.20196353448984
33 0.013217440477145
34 -0.54343499293984
35 0.0
36 0.0
37 -0.14186720476079
38 0.0
39 0.0
40 -0.081164346451455
41 0.0
42 0.0
43 -1.25537414237046
44 -0.010070456719817
45 -0.026670859485755
46 0.036741316205573
47 0.0
48 0.0
49 0.0
50 0.010910247794184
51 0.13188023624243
52 -0.14279048403661
53 0.0
54 0.0
55 0.0
56 0.0
57 0.0
58 -0.016455610292164
59 0.0
60 0.0
61 0.012647158124246
62 0.0
63 0.0
64 0.009430359810468
65 0.0
 Sym=      4.3
 Ene=       0.8056
 Spin= Alpha
 Occup=    0.000000
1 0.12484821081749
2 -1.71840757828683
3 -1.52638397108469
4 0.0
5 0.042505563315975
6 0.034008595716070
7 0.0
8 0.92513658418724
9 0.76279006628101
10 0.053851149397282
11 -0.051525569796656
12 -0.002325579600626
13 0.0
14 0.0
15 -0.091653796172387
16 -0.12484821081749
17 1.71840757828683
18 1.52638397108469
19 0.0
20 0.042505563315975
21 -0.034008595716070
22 0.0
23 0.92513658418724
24 -0.76279006628101
25 -0.053851149397282
26 0.051525569796656
27 0.002325579600626
28 0.0
29 0.0
30 -0.091653796172387
31 0.0
32 0.0
33 0.0
34 0.0
35 0.0
36 -0.71590461669641
37 0.0
38 0.0
39 0.37512993904254
40 0.0
41 0.0
42 3.20513619085750
43 0.0
44 0.0
45 0.0
46 0.0
47 0.0
48 0.0
49 -0.025218418727494
50 0.0
51 0.0
52 0.0
53 0.0
54 0.0
55 0.45864478094122
56 0.0
57 0.000013703475923
58 0.0
59 0.0
60 -0.029513739224960
61 0.0
62 0.0
63 0.029495354082745
64 0.0
65 0.0
 Sym=      1.4
 Ene=       0.8625
 Spin= Alpha
 Occup=    0.000000
1 0.0
2 0.0
3 0.0
4 -0.060089493387762
5 0.0
6 0.0
7 0.84917077648678
8 0.0
9 0.0
10 0.0
11 0.0
12 0.0
13 -0.012942790249773
14 -0.025509209604812
15 0.0
16 0.0
17 0.0
18 0.0
19 0.060089493387762
20 0.0
21 0.0
22 -0.84917077648678
23 0.0
24 0.0
25 0.0
26 0.0
27 0.0
28 -0.012942790249773
29 0.025509209604812
30 0.0
31 0.0
32 0.0
33 0.0
34 0.0
35 0.0
36 0.0
37 0.0
38 0.0
39 0.0
40 0.0
41 0.0
42 0.0
43 0.0
44 0.0
45 0.0
46 0.0
47 0.027339108028199
48 0.0
49 0.0
50 0.0
51 0.0
52 0.0
53 -0.031048833643808
54 0.0
55 0.0
56 0.0
57 0.0
58 0.0
59 0.0
60 0.0
61 0.0
62 0.0
63 0.0
64 0.0
65 -0.016393783717067
 Sym=      3.2
 Ene=       0.9527
 Spin= Alpha
 Occup=    0.000000
1 0.0
2 0.0
3 0.0
4 -0.072369414829366
5 0.0
6 0.0
7 1.00630671648124
8 0.0
9 0.0
10 0.0
11 0.0
12 0.0
13 -0.040519658058819
14 -0.003527694374746
15 0.0
16 0.0
17 0.0
18 0.0
19 -0.072369414829366
20 0.0
21 0.0
22 1.00630671648124
23 0.0
24 0.0
25 0.0
26 0.0
27 0.0
28 0.040519658058819
29 -0.003527694374746
30 0.0
31 0.0
32 0.0
33 0.0
34 0.0
35 -0.065275454596509
36 0.0
37 0.0
38 -0.031273011999188
39 0.0
40 0.0
41 -1.11349168933298
42 0.0
43 0.0
44 0.0
45 0.0
46 0.0
47 0.0
48 0.024372479950507
49 0.0
50 0.0
51 0.0
52 0.0
53 0.0
54 -0.005411493268954
55 0.0
56 0.018044804604214
57 0.0
58 0.0
59 -0.017700588744706
60 0.0
61 0.0
62 -0.006509057096728
63 0.0
64 0.0
65 0.0
 Sym=      8.1
 Ene=       1.1324
 Spin= Alpha
 Occup=    0.000000
1 0.11166488187705
2 -2.99334713566421
3 -0.65338569519965
4 0.0
5 0.077999383477299