
 Working directory              : /tmp/zwa/molpro.t33NfZiILm/
 Global scratch directory       : /tmp/zwa/molpro.t33NfZiILm/
 Wavefunction directory         : /home/zwa/wfu/
 Main file repository           : /tmp/zwa/molpro.t33NfZiILm/

 id        : liedlgroup

 Nodes     nprocs
 rh2-c724     6
 GA implementation: MPI file
 GA implementation (serial work in mppx): MPI file

 Using customized tuning parameters: mindgm=1; mindgv=20; mindgc=4; mindgr=1; noblas=0; minvec=7
 default implementation of scratch files=sf  


 Variables initialized (1015), CPU time= 0.23 sec
 memory,1000,m
 orient,mass
 geometry = {
  C,                 -0.78481011 ,  -0.36708860  ,  0.00000000
  H,                 -0.25164636 ,  -1.29479352  ,  0.00000000
  H,                 -1.85481011 ,  -0.36708860  ,  0.00000000
  O,                 -0.15776968 ,   0.72396174  ,  0.00000000
 }
 
 mass,iso
 basis=6-311g(d,p)
 {hf
 start,atden}
 {mp2}
 
 optg
 {frequencies, symm=auto,print=0,analytical}
 put,molden,formaldehydemp2.molden
 Commands initialized (834), CPU time= 0.05 sec, 672 directives.
 Default parameters read. Elapsed time= 0.95 sec

 Checking input...
 Passed
1


                                         ***  PROGRAM SYSTEM MOLPRO  ***
                                       Copyright, TTI GmbH Stuttgart, 2015
                                    Version 2022.2 linked Thu Sep 29 12:37:28 2022


 **********************************************************************************************************************************
 LABEL *                                                                                 
  (8 PROC) 64 bit mpp version                                                            DATE: 25-Aug-25          TIME: 11:50:12  
 **********************************************************************************************************************************

 SHA1:             51306cdc306ce2a111a2867affebcb289530e0a7
 **********************************************************************************************************************************

 Memory per process:      1000 MW
 Total memory per node:   6000 MW

 GA preallocation disabled
 GA check disabled

 Variable memory set to 1000.0 MW

 ZCENTRE=MASS


 Geometry recognized as XYZ



 Using masses of most abundant isotopes

 **********************************************************************************************************************************
 SETTING BASIS          =    6-311G(D,P)


 Recomputing integrals since basis changed


 Using spherical harmonics

 Library entry C      S 6-311G               selected for orbital group  1
 Library entry C      P 6-311G               selected for orbital group  1
 Library entry C      D 6-311G*              selected for orbital group  1
 Library entry H      S 6-311G               selected for orbital group  2
 Library entry H      P 6-311G**             selected for orbital group  2
 Library entry O      S 6-311G               selected for orbital group  3
 Library entry O      P 6-311G               selected for orbital group  3
 Library entry O      D 6-311G*              selected for orbital group  3


 PROGRAM * SEWARD (Integral evaluation for generally contracted gaussian basis sets)     Author: Roland Lindh, 1990

 Geometry written to block  1 of record 700

 Orientation using atomic masses  
 Molecule type: Asymmetric top
 Symmetry elements: X
 Rotational constants:      32.5062911     36.5731248    292.3297901 GHz

 Point group  Cs  



 ATOMIC COORDINATES

 NR  ATOM    CHARGE       X              Y              Z

   1  C       6.00    0.000000000    0.000065234   -1.199413922
   2  H       1.00    0.000000000    1.747040221   -2.217544819
   3  H       1.00    0.000000000   -1.753157919   -2.206747380
   4  O       8.00    0.000000000    0.000336530    1.178617407

 Bond lengths in Bohr (Angstrom)

 1-2  2.022006956  1-3  2.022006953  1-4  2.378031344
     ( 1.070000001)     ( 1.070000000)     ( 1.258399994)

 Bond angles

  2-1-3  119.88652707   2-1-4  120.22694580   3-1-4  119.88652713

 NUCLEAR CHARGE:                   16
 NUMBER OF PRIMITIVE AOS:          80
 NUMBER OF SYMMETRY AOS:           78
 NUMBER OF CONTRACTIONS:           48   (   36A'  +   12A"  )
 NUMBER OF INNER CORE ORBITALS:     0   (    0A'  +    0A"  )
 NUMBER OF OUTER CORE ORBITALS:     2   (    2A'  +    0A"  )
 NUMBER OF VALENCE ORBITALS:       10   (    8A'  +    2A"  )


 NUCLEAR REPULSION ENERGY   30.59827801

 Eigenvalues of metric

         1 0.150E-01 0.202E-01 0.272E-01 0.310E-01 0.462E-01 0.780E-01 0.980E-01 0.107E+00
         2 0.159E+00 0.211E+00 0.409E+00 0.466E+00 0.498E+00 0.906E+00 0.934E+00 0.999E+00


 Contracted 2-electron integrals neglected if value below      1.0D-11
 AO integral compression algorithm  1   Integral accuracy      1.0D-11

     2.884 MB (compressed) written to integral file ( 79.1%)

     Node minimum: 0.262 MB, node maximum: 0.524 MB


 NUMBER OF SORTED TWO-ELECTRON INTEGRALS:      63816.     BUFFER LENGTH:  32768
 NUMBER OF SEGMENTS:   1  SEGMENT LENGTH:      63816      RECORD LENGTH: 524288

 Memory used in sort:       0.62 MW

 SORT1 READ      497818. AND WROTE       61281. INTEGRALS IN      1 RECORDS. CPU TIME:     0.08 SEC, REAL TIME:     0.16 SEC
 SORT2 READ      366771. AND WROTE      381036. INTEGRALS IN      6 RECORDS. CPU TIME:     0.02 SEC, REAL TIME:     0.06 SEC

 Node minimum:       63196.  Node maximum:       63816. integrals

 OPERATOR DM      FOR CENTER  0  COORDINATES:    0.000000    0.000000    0.000000


 **********************************************************************************************************************************
 DATASETS  * FILE   NREC   LENGTH (MB)   RECORD NAMES
              1      18       28.66       500      610      700      900      950      970     1000      129      960     1100   
                                          VAR    BASINP    GEOM    SYMINP    ZMAT    AOBASIS   BASIS     P2S    ABASIS      S 
                                         1400     1410     1200     1210     1080     1600     1650     1700   
                                           T        V       H0       H01     AOSYM     SMH    MOLCAS    OPER   

 PROGRAMS   *        TOTAL       INT
 CPU TIMES  *         1.88      0.96
 REAL TIME  *         3.97 SEC
 DISK USED  *        28.97 MB (local),      199.62 MB (total)
 GA USED    *         0.00 MB       (max)       0.00 MB       (current)
 **********************************************************************************************************************************


 Program * Restricted Hartree-Fock

 Orbital guess generated from atomic densities.

 Initial occupancy:   7   1

 NELEC=   16   SYM=1   MS2= 0   THRE=1.0D-08   THRD=1.0D-06   THRG=1.0D-06  HFMA2=F  DIIS_START=2   DIIS_MAX=10   DIIS_INCORE=F

 Level shifts:    0.00 (CLOSED)    0.00 (OPEN)    0.30 (GAP_MIN)

 ITER           ETOT              DE          GRAD        DDIFF     DIIS  NEXP   TIME(IT)  TIME(TOT)  DIAG
   1     -113.82981577    -113.82981577     0.00D+00     0.87D-01     0     0       0.04      0.20    start
   2     -113.85214190      -0.02232613     0.17D-01     0.15D-01     1     0       0.07      0.27    diag
   3     -113.88810431      -0.03596241     0.15D-01     0.72D-02     2     0       0.06      0.33    diag
   4     -113.88857643      -0.00047212     0.11D-02     0.10D-02     3     0       0.07      0.40    diag
   5     -113.88864707      -0.00007064     0.40D-03     0.44D-03     4     0       0.05      0.45    diag
   6     -113.88866582      -0.00001875     0.16D-03     0.25D-03     5     0       0.05      0.50    diag
   7     -113.88866879      -0.00000297     0.74D-04     0.12D-03     6     0       0.06      0.56    diag
   8     -113.88866889      -0.00000010     0.15D-04     0.22D-04     7     0       0.06      0.62    fixocc
   9     -113.88866890      -0.00000000     0.20D-05     0.33D-05     8     0       0.07      0.69    diag
  10     -113.88866890      -0.00000000     0.38D-06     0.58D-06     9     0       0.10      0.79    diag/orth
  11     -113.88866890      -0.00000000     0.54D-07     0.59D-07     0     0       0.06      0.85    diag

 Final occupancy:   7   1

 !RHF STATE 1.1 Energy               -113.888668896088
  RHF One-electron energy            -216.079187412599
  RHF Two-electron energy              71.592240509657
  RHF Kinetic energy                  113.686272297225
  RHF Nuclear energy                   30.598278006854
  RHF Virial quotient                  -1.001780308165

 !RHF STATE 1.1 Dipole moment           0.00000000     0.00010602    -1.20446790
 Dipole moment /Debye                   0.00000000     0.00026948    -3.06145204

 Orbital energies:

           1.1          2.1          3.1          4.1          5.1          6.1          7.1          8.1          9.1
    -20.569682   -11.340770    -1.369255    -0.884037    -0.695084    -0.632054    -0.448005     0.157928     0.206075

           1.2          2.2          3.2
     -0.508465     0.114190     0.576933


 HOMO      7.1    -0.448005 =     -12.1908eV
 LUMO      2.2     0.114190 =       3.1073eV
 LUMO-HOMO         0.562195 =      15.2981eV

 Orbitals saved in record  2100.2


 **********************************************************************************************************************************
 DATASETS  * FILE   NREC   LENGTH (MB)   RECORD NAMES
              1      18       28.66       500      610      700      900      950      970     1000      129      960     1100   
                                          VAR    BASINP    GEOM    SYMINP    ZMAT    AOBASIS   BASIS     P2S    ABASIS      S 
                                         1400     1410     1200     1210     1080     1600     1650     1700   
                                           T        V       H0       H01     AOSYM     SMH    MOLCAS    OPER   

              2       4        0.42       700     1000      520     2100   
                                         GEOM     BASIS   MCVARS     RHF  

 PROGRAMS   *        TOTAL    HF-SCF       INT
 CPU TIMES  *         2.76      0.86      0.96
 REAL TIME  *         4.90 SEC
 DISK USED  *        29.23 MB (local),      201.17 MB (total)
 GA USED    *         0.00 MB       (max)       0.00 MB       (current)
 **********************************************************************************************************************************


 PROGRAM * MP2 (Closed-shell)     Authors: C. Hampel, H.-J. Werner, 1991, M. Deegan, P.J. Knowles, 1992


 Convergence thresholds:  THRVAR = 1.00D-12  THRDEN = 1.00D-08

 Number of core orbitals:           2 (   2   0 )
 Number of closed-shell orbitals:   6 (   5   1 )
 Number of external orbitals:      40 (  29  11 )

 Molecular orbitals read from record     2100.2  Type=RHF/CANONICAL  

 Number of N-1 electron functions:               6
 Number of N-2 electron functions:              21
 Number of singly external CSFs:               156
 Number of doubly external CSFs:             15816
 Total number of CSFs:                       15973

 Length of J-op  integral file:               0.00 MB
 Length of K-op  integral file:               0.10 MB

 Integral transformation finished. Total CPU:   0.03 sec, npass=  1  Memory used:   0.12 MW

 Memory needed for MP2:                      0.01 MW

 SCS-MP2 correlation energy:           -0.337066289759   (PS=  1.200000  PT=  0.333333)
 SCS-MP2 total energy:               -114.225735185847


  Reference energy                   -113.888668896088
  MP2 singlet pair energy              -0.214816667702
  MP2 triplet pair energy              -0.127424392259
  MP2 correlation energy               -0.342241059961

 !MP2 total energy                   -114.230909956049

 KEXT needed  1 integral passes. Memory used:   0.11 MW  CPU time:      1.43 sec

 CPHF start vector      0.2 not found

 Starting Coupled-perturbed Hartree-Fock, convergence threshold= 1.0D-06

 ITER   MIC  DIIS      VAR         VARC       CPU
   1     0     1    0.49D-01    0.20D-02     0.00
   2     6     2    0.48D-03    0.19D-03     0.04
   3     4     3    0.21D-04    0.45D-05     0.05
   4     4     4    0.10D-05    0.23D-06     0.08
   5     1     5    0.27D-06    0.61D-08     0.12

 CPHF convergence reached in  5 macroiterations and   15 microiterations.   Accuracy: 2.6729D-07

 CPHF solution written to record  4100.2

 Dipole moments (unrelaxed):            0.00000000     0.00007497    -1.14453450
 Orbital relaxation contribution:      -0.00000000    -0.00000111     0.21853207
 !MP2 STATE 1.1 Dipole moment           0.00000000     0.00007386    -0.92600244
 Dipole moment /Debye                   0.00000000     0.00018773    -2.35366343

 CPU-time for density and lagrangian:                  0.64 sec
 CPU-time for coupled-perturbed hartree-fock:          0.20 sec

 MP2 gradient info saved on record         5200.1


 **********************************************************************************************************************************
 DATASETS  * FILE   NREC   LENGTH (MB)   RECORD NAMES
              1      20       29.18       500      610      700      900      950      970     1000      129      960     1100   
                                          VAR    BASINP    GEOM    SYMINP    ZMAT    AOBASIS   BASIS     P2S    ABASIS      S 
                                         1400     1410     1200     1210     1080     1600     1650     1700     1380     5200   
                                           T        V       H0       H01     AOSYM     SMH    MOLCAS    OPER     JKOP      MP2  

              2       5        0.46       700     1000      520     2100     4100   
                                         GEOM     BASIS   MCVARS     RHF     CPHF   

 PROGRAMS   *        TOTAL       MP2    HF-SCF       INT
 CPU TIMES  *         5.78      2.99      0.86      0.96
 REAL TIME  *         7.80 SEC
 DISK USED  *        29.70 MB (local),      204.00 MB (total)
 SF USED    *         1.33 MB
 GA USED    *         0.00 MB       (max)       0.00 MB       (current)
 **********************************************************************************************************************************


 PROGRAM * OPT (Geometry optimization)     Authors: F. Eckert and H.-J. Werner


 BFGS update of hessian

 *** Long output written to logfile /home/zwa/Overlap_Integral_Project/overlap_integral_gaussian/molpro_files/formaldehyde/formalmp2/formaldehyde.log ***


 Geometry optimization using default procedure for command MP2

 Geometry written to block  1 of record 700

 Making model hessian for cartesian coordinates

 Entering Rational Function Geometry Optimization

 ITER.   ENERGY(OLD)    ENERGY(NEW)      DE          GRADMAX     GRADNORM    GRADRMS     STEPMAX     STEPLEN     STEPRMS   CPU-time
   1  -114.23090996  -114.23451621    -0.00360625  0.10303911  0.10383051  0.01730508  0.04763175  0.05338900  0.02669450      7.31
   2  -114.23451621  -114.23515579    -0.00063958  0.03876367  0.03954468  0.00659078  0.02993935  0.04256445  0.02128222     14.20
   3  -114.23515579  -114.23517083    -0.00001504  0.00539307  0.00599951  0.00099992  0.00409011  0.00601554  0.00300777     21.57
   4  -114.23517083  -114.23517113    -0.00000030  0.00049808  0.00050274  0.00008379  0.00108647  0.00111301  0.00055651     28.48
   5  -114.23517113  -114.23517112     0.00000000  0.00004244  0.00005632  0.00000939  0.00013302  0.00017059  0.00008529     34.37

 END OF GEOMETRY OPTIMIZATION.

 Geometry written to block  1 of record 700

 Recomputing wavefunction for reoriented structure

 Current geometry (xyz format, in Angstrom)

    4
 MP2/6-311G(D,P)  ENERGY=-114.23517112
 C          0.0000000000        0.0000000265       -0.6057117311
 H          0.0000000000        0.9362480924       -1.1944490423
 H          0.0000000000       -0.9362483336       -1.1944489865
 O          0.0000000000       -0.0000000047        0.6049506955

 **********************************************************************************************************************************


 **********************************************************************************************************************************
 DATASETS  * FILE   NREC   LENGTH (MB)   RECORD NAMES
              1      20       29.18       500      610      700      900      950      970     1000      129      960     1100   
                                          VAR    BASINP    GEOM    SYMINP    ZMAT    AOBASIS   BASIS     P2S    ABASIS      S 
                                         1400     1410     1200     1210     1080     1600     1650     1700     1380     5200   
                                           T        V       H0       H01     AOSYM     SMH    MOLCAS    OPER     JKOP      MP2  

              2       6        0.48       700     1000      520     2100     4100     9001   
                                         GEOM     BASIS   MCVARS     RHF     CPHF    DEN_MP2    

 PROGRAMS   *        TOTAL      OPTG       MP2    HF-SCF       INT
 CPU TIMES  *        44.60     38.78      2.99      0.86      0.96
 REAL TIME  *        45.26 SEC
 DISK USED  *        29.71 MB (local),      204.34 MB (total)
 SF USED    *         1.35 MB
 GA USED    *         0.00 MB       (max)       0.00 MB       (current)
 **********************************************************************************************************************************


 PROGRAM * HESSIAN

 Computing numerical hessian using default procedure for command MP2

 Symmetry elements for unique displacements: X  Y  

 Using AUTO symmetry option

 Running default procedure: HF-SCF000  MP2


 Numerically approximating hessian using central gradient differences

 Task list generated. Total number of displacements:     13

 All  13 tasks completed.  CPU=     32.08 sec, Elapsed=     26.86 sec.

 MP2 hessian saved to record  5300.2

 PROGRAM * FREQUENCIES (Calculation of harmonic vibrational spectra for MP2)


 Permanent Dipole Moment [debye]
   1-  3    0.000000    0.000000   -2.171036

 Dipole Moment Norm    2.1710364 [debye]

 Dipole Moment Derivatives [debye/ang]
              1             2             3             4             5             6             7             8
    1  -30.30387468    0.00000000    0.00000000    0.35078347    0.00000000    0.00000000    0.35078347    0.00000000
    2    0.00000000    4.08208860    0.00000000    0.00000000   -1.01184511    0.46477678    0.00000000   -1.01184511
    3    0.00000000    0.00000000    4.11014787    0.00000000    0.59414100   -0.38434894    0.00000000   -0.59414100
              9            10            11            12
    1    0.00000000    1.54166441    0.00000000    0.00000000
    2   -0.46477678    0.00000000   -2.05850212    0.00000000
    3   -0.38434894    0.00000000    0.00000000   -3.34153591

 Projecting out rotations and translations

 Force Constants (Second Derivatives of the Energy) in [a.u.]
                             CX1         CY1         CZ1         HX2         HY2     
           CX1          -0.0708121
           CY1           0.0000000   0.6051649
           CZ1           0.0000000  -0.0000000   0.9542264
           HX2           0.0238217   0.0000000   0.0000000  -0.0080138
           HY2           0.0000000  -0.2484072   0.0839737   0.0000000   0.2516310
           HZ2           0.0000000   0.0861509  -0.1023240   0.0000000  -0.1111198
           HX3           0.0238217   0.0000000   0.0000000  -0.0080138   0.0000000
           HY3           0.0000000  -0.2484072  -0.0839737   0.0000000  -0.0200341
           HZ3           0.0000000  -0.0861509  -0.1023240   0.0000000   0.0127770
           OX4           0.0231687   0.0000000   0.0000000  -0.0077941   0.0000000
           OY4           0.0000000  -0.1083505   0.0000000   0.0000000   0.0168103
           OZ4           0.0000000   0.0000000  -0.7495784   0.0000000   0.0143691
                             HZ2         HX3         HY3         HZ3         OX4     
           HZ2           0.1358864
           HX3           0.0000000  -0.0080138
           HY3          -0.0127770   0.0000000   0.2516310
           HZ3           0.0091678   0.0000000   0.1111198   0.1358864
           OX4           0.0000000  -0.0077941   0.0000000   0.0000000  -0.0075805
           OY4           0.0377458   0.0000000   0.0168103  -0.0377458   0.0000000
           OZ4          -0.0427302   0.0000000  -0.0143691  -0.0427302   0.0000000
                             OY4         OZ4     
           OY4           0.0747299
           OZ4          -0.0000000   0.8350388


 Atomic Masses
   1-  4   12.000000    1.007825    1.007825   15.994910

 Mass weighted Second Derivative Matrix
                             CX1         CY1         CZ1         HX2         HY2     
           CX1          -0.0059010
           CY1           0.0000000   0.0504304
           CZ1           0.0000000  -0.0000000   0.0795189
           HX2           0.0068500   0.0000000   0.0000000  -0.0079516
           HY2           0.0000000  -0.0714301   0.0241468   0.0000000   0.2496773
           HZ2           0.0000000   0.0247729  -0.0294235   0.0000000  -0.1102570
           HX3           0.0068500   0.0000000   0.0000000  -0.0079516   0.0000000
           HY3           0.0000000  -0.0714301  -0.0241468   0.0000000  -0.0198786
           HZ3           0.0000000  -0.0247729  -0.0294235   0.0000000   0.0126778
           OX4           0.0016723   0.0000000   0.0000000  -0.0019413   0.0000000
           OY4           0.0000000  -0.0078208   0.0000000   0.0000000   0.0041869
           OZ4           0.0000000   0.0000000  -0.0541048   0.0000000   0.0035789
                             HZ2         HX3         HY3         HZ3         OX4     
           HZ2           0.1348314
           HX3           0.0000000  -0.0079516
           HY3          -0.0126778   0.0000000   0.2496773
           HZ3           0.0090966   0.0000000   0.1102570   0.1348314
           OX4           0.0000000  -0.0019413   0.0000000   0.0000000  -0.0004739
           OY4           0.0094013   0.0000000   0.0041869  -0.0094013   0.0000000
           OZ4          -0.0106427   0.0000000  -0.0035789  -0.0106427   0.0000000
                             OY4         OZ4     
           OY4           0.0046721
           OZ4          -0.0000000   0.0522065


 Mass Weighted 2nd Derivative Matrix Eigenvalues
   1- 10   -0.022278    0.000000    0.000000    0.000000    0.000000    0.000000    0.000000    0.063004    0.092962    0.119549
  11- 12    0.332698    0.347632

 Mass Weighted 2nd Derivative Matrix Eigenvectors
              1             2             3             4             5             6             7             8
    1   -0.51466443    0.00000000    0.85739170    0.00000000    0.00000000    0.00000000    0.00000000    0.00000000
    2    0.00000000    0.44158949    0.00000000    0.06880675   -0.24890425    0.30356534    0.58439819   -0.44146478
    3    0.00000000    0.42370510    0.00000000   -0.03674064   -0.26933052   -0.19517401   -0.32916796    0.00000000
    4    0.59743083   -0.09652417    0.35861835    0.08241801   -0.12191651   -0.61236574    0.32939975    0.00000000
    5    0.00000000    0.17822569    0.00000000   -0.08654104   -0.10645888    0.11896635    0.25563908    0.21933321
    6    0.00000000    0.20270475    0.00000000   -0.17998116   -0.13263980   -0.00727578    0.04181296    0.56336701
    7    0.59743083   -0.02795901    0.35861835   -0.07235295   -0.08324096    0.62606109   -0.33101523    0.00000000
    8    0.00000000    0.17822569    0.00000000   -0.08654104   -0.10645888    0.11896635    0.25563908    0.21933321
    9    0.00000000    0.04287673    0.00000000    0.15868611   -0.02346545   -0.10584801   -0.23260027   -0.56336701
   10    0.14585381    0.50989475    0.08755131   -0.04122742    0.84034420   -0.05609742    0.00661712    0.00000000
   11    0.00000000    0.09814861    0.00000000    0.95175413   -0.00616047    0.09657581   -0.03211695    0.27226819
   12    0.00000000    0.48917468    0.00000000   -0.04241769   -0.31094662   -0.22533169   -0.38002995    0.00000000
              9            10            11            12
    1    0.00000000    0.00000000    0.00000000    0.00000000
    2    0.00000000    0.00000000    0.00000000   -0.33128044
    3    0.09360365    0.74419104    0.19380093    0.00000000
    4    0.00000000    0.00000000    0.00000000    0.00000000
    5    0.31209568   -0.19637857    0.60335043    0.56727539
    6    0.57442690   -0.13881822   -0.34231694   -0.35117368
    7    0.00000000    0.00000000    0.00000000    0.00000000
    8   -0.31209568    0.19637857   -0.60335043    0.56727539
    9    0.57442690   -0.13881822   -0.34231694    0.35117368
   10    0.00000000    0.00000000    0.00000000    0.00000000
   11    0.00000000    0.00000000    0.00000000    0.00215235
   12   -0.36945689   -0.57489966    0.00399093    0.00000000

 Imaginary Vibration  Wavenumber
        Nr             [1/cm] 
        1              767.26

   Low Vibration      Wavenumber
        Nr             [1/cm] 
        1                0.00
        2                0.00
        3                0.00
        4                0.00
        5                0.00
        6                0.00

     Vibration        Wavenumber
        Nr             [1/cm] 
        1             1290.29
        2             1567.32
        3             1777.37
        4             2965.03
        5             3030.85

 FREQUENCIES * CALCULATION OF NORMAL MODES FOR MP2


 Atomic Coordinates

  Nr  Atom  Charge       X              Y              Z

   1   C     6.00    0.000000000    0.000000000   -1.144629282
   2   H     1.00    0.000000000    1.769252707   -2.257181507
   3   H     1.00    0.000000000   -1.769252707   -2.257181507
   4   O     8.00    0.000000000    0.000000000    1.143191133

 Gradient norm at reference geometry: 0.10643D-03

 Normal Modes

                              1 B2        2 A1        3 A1        4 A1        5 B2 
 Wavenumbers [cm-1]         1290.29     1567.32     1777.37     2965.03     3030.85
 Intensities [km/mol]         14.26        5.16       64.68       61.14      146.22
 Intensities [relative]        1.36        0.49        6.18        5.84       13.97
           CX1              0.00000    -0.00000    -0.00000    -0.00000     0.00000
           CY1             -0.12744     0.00000    -0.00000     0.00000    -0.09563
           CZ1             -0.00000     0.02702     0.21483     0.05595     0.00000
           HX2              0.00000     0.00000    -0.00000    -0.00000     0.00000
           HY2              0.21848     0.31088    -0.19561     0.60100     0.56507
           HZ2              0.56118     0.57219    -0.13828    -0.34099    -0.34981
           HX3             -0.00000    -0.00000     0.00000     0.00000     0.00000
           HY3              0.21848    -0.31088     0.19561    -0.60100     0.56507
           HZ3             -0.56118     0.57219    -0.13828    -0.34099     0.34981
           OX4             -0.00000    -0.00000    -0.00000     0.00000    -0.00000
           OY4              0.06808    -0.00000     0.00000     0.00000     0.00054
           OZ4              0.00000    -0.09238    -0.14375     0.00100    -0.00000


 Normal Modes of imaginary frequencies

                                  1
 Wavenumbers [cm-1]          767.26
 Intensities [km/mol]       1046.29
 Intensities [relative]      100.00
           CX1             -0.14857
           CY1             -0.00000
           CZ1             -0.00000
           HX2              0.59511
           HY2             -0.00000
           HZ2             -0.00000
           HX3              0.59511
           HY3             -0.00000
           HZ3             -0.00000
           OX4              0.03647
           OY4             -0.00000
           OZ4             -0.00000


 Normal Modes of low/zero frequencies

                                  1           2           3           4           5
 Wavenumbers [cm-1]            0.00        0.00        0.00        0.00        0.00
 Intensities [km/mol]          0.00        0.00        0.00        0.00        0.00
 Intensities [relative]        0.00        0.00        0.00        0.00        0.00
           CX1              0.00000     0.24751    -0.00000    -0.00000     0.00000
           CY1              0.12748    -0.00000     0.01986    -0.07185     0.08763
           CZ1              0.12231    -0.00000    -0.01061    -0.07775    -0.05634
           HX2             -0.09615     0.35722     0.08210    -0.12144    -0.60998
           HY2              0.17753    -0.00000    -0.08620    -0.10604     0.11850
           HZ2              0.20192    -0.00000    -0.17928    -0.13212    -0.00725
           HX3             -0.02785     0.35722    -0.07207    -0.08292     0.62363
           HY3              0.17753    -0.00000    -0.08620    -0.10604     0.11850
           HZ3              0.04271    -0.00000     0.15807    -0.02337    -0.10544
           OX4              0.12749     0.02189    -0.01031     0.21012    -0.01403
           OY4              0.02454    -0.00000     0.23798    -0.00154     0.02415
           OZ4              0.12231    -0.00000    -0.01061    -0.07775    -0.05634

                                  6
 Wavenumbers [cm-1]            0.00
 Intensities [km/mol]          0.00
 Intensities [relative]        0.00
           CX1             -0.00000
           CY1              0.16870
           CZ1             -0.09502
           HX2              0.32812
           HY2              0.25464
           HZ2              0.04165
           HX3             -0.32973
           HY3              0.25464
           HZ3             -0.23170
           OX4              0.00165
           OY4             -0.00803
           OZ4             -0.09502


 Frequencies dumped to record   5400.2

 Zero point energy:  0.02421888 [H]     5315.43 [1/CM]       63.59 [KJ/MOL]
 Frequency information read from record  5400.2

 Recomputing wavefunction at initial geometry


 **********************************************************************************************************************************
 DATASETS  * FILE   NREC   LENGTH (MB)   RECORD NAMES
              1      20       29.18       500      610      700      900      950      970     1000      129      960     1100   
                                          VAR    BASINP    GEOM    SYMINP    ZMAT    AOBASIS   BASIS     P2S    ABASIS      S 
                                         1400     1410     1200     1210     1080     1600     1650     1700     1380     5200   
                                           T        V       H0       H01     AOSYM     SMH    MOLCAS    OPER     JKOP      MP2  

              2       9        0.48       700     1000      520     2100     4100     9001     5300     5450     5400   
                                         GEOM     BASIS   MCVARS     RHF     CPHF    DEN_MP2   HESS     NMOD     FREQ   

 PROGRAMS   *        TOTAL      FREQ      OPTG       MP2    HF-SCF       INT
 CPU TIMES  *        80.25     35.62     38.78      2.99      0.86      0.96
 REAL TIME  *        75.78 SEC
 DISK USED  *        40.19 MB (local),      262.16 MB (total)
 SF USED    *         1.35 MB
 GA USED    *         0.00 MB       (max)       0.00 MB       (current)
 **********************************************************************************************************************************

 Dump information in style MOLDEN to formaldehydemp2.molden                                                          

 Molecular orbitals read from record     2100.2  Type=RHF/CANONICAL (state 1.1)
 Occupation numbers read from record     2100.2  Type=RHF/RHF (state 1.1)
 Orbital energies read from record       2100.2  Type=RHF/CANONICAL (state 1.1)
 Redundancy group numbers read from rec  2100.2  Type=RHF/RHF (state 1.1)

 DUMP ORBITAL  1.1 AS ORBITAL    1  occ=    2.0000  eig=  -20.5705  GROUP=   2
 DUMP ORBITAL  2.1 AS ORBITAL    2  occ=    2.0000  eig=  -11.3414  GROUP=   2
 DUMP ORBITAL  3.1 AS ORBITAL    3  occ=    2.0000  eig=   -1.4007  GROUP=   2
 DUMP ORBITAL  4.1 AS ORBITAL    4  occ=    2.0000  eig=   -0.8676  GROUP=   2
 DUMP ORBITAL  5.1 AS ORBITAL    5  occ=    2.0000  eig=   -0.6891  GROUP=   2
 DUMP ORBITAL  6.1 AS ORBITAL    6  occ=    2.0000  eig=   -0.6481  GROUP=   2
 DUMP ORBITAL  1.2 AS ORBITAL    7  occ=    2.0000  eig=   -0.5303  GROUP=   2
 DUMP ORBITAL  7.1 AS ORBITAL    8  occ=    2.0000  eig=   -0.4397  GROUP=   2

 Total charge:      16.000000
 Frequency information read from record  5400.2

 **********************************************************************************************************************************

 MP2/6-311G(D,P) energy=   -114.235171127032

       OPTG(MP2)             MP2          HF-SCF
   -114.23517112   -114.23090996   -113.88866890
 **********************************************************************************************************************************
 Molpro calculation terminated
