[Molden Format]
[Molpro variables]
_NUMVAR=  1037.000000000000    
_AVOGAD= 0.6022140760000000E+24
_BOLTZ= 0.1380649000000000E-22
_CLIGHTSI=  299792458.0000000    
_JOULE= 0.4359744722207100E-17
_JPCAL=  4.184000000000000    
_PLANCK= 0.6626070150000000E-33
_BOHR= 0.5291772109030000E-10
_ECHARG= 0.1602176634000000E-18
_ENULL= 0.8854187812800001E-11
_MU= 0.1660539066600000E-26
_EMASS= 0.9109383701500001E-30
_AMU2AU=  1822.888486217313    
_CLIGHT=  29979245800.00000    
_EV= 0.3674932217565494E-01
_KJOULE= 0.3808798847133432E-03
_KJOULE/MOL= 0.3808798847133432E-03
_CM= 0.4556335252912009E-05
_CM-1= 0.4556335252912009E-05
_DEB2SI= 0.3335640951981520E-29
_KCAL= 0.1593601437640628E-02
_KCAL/MOL= 0.1593601437640628E-02
_KELVIN= 0.3166811563455608E-05
_HERTZ= 0.1519829846057038E-15
_HZ= 0.1519829846057038E-15
_TOA= 0.5291772109030000    
_TOANG= 0.5291772109030000    
_TORAD= 0.1745329251994330E-01
_TOCM=  219474.6313631965    
_TODEBYE=  2.541746473194078    
_TOE= 0.4803204712570263E-09
_TOEV=  27.21138624598803    
_TOHERTZ=  6579683920501656.    
_TOHZ=  6579683920501656.    
_TOK=  315775.0248040668    
_TOKCAL=  627.5094740630558    
_TOKELVIN=  315775.0248040668    
_TOKJ=  2625.499639479825    
_TOKJOULE=  2625.499639479825    
_TOKG= 0.1660539066600000E-26
_ANG=  1.889726124625770    
_ANGSTROM=  1.889726124625770    
_RPAREF=  0.000000000000000    
_RPADISS=  0.000000000000000    
_IGNORE_UNDEF=  2.000000000000000    
_STRICTCHECK=  0.000000000000000    
!SEWARD=  0.000000000000000    
!MULTI=  0.000000000000000    
!DFMULTI=  0.000000000000000    
_SEW_ONEEL=  0.000000000000000    
_CPPDONE=FALSE
_DKROLL_DONE=  0.000000000000000    
_FNUC_DONE=  0.000000000000000    
_FOCKDONE=TRUE
_GRADONE=FALSE
_HESSDONE=TRUE
_INTDONE=TRUE
_SCFDONE=TRUE
_MODUL_BLOCK=FALSE
_MODUL_CUDA=FALSE
_MODUL_SLATER=FALSE
_MODUL_MRCC=FALSE
_MODUL_NBO6=FALSE
_MODUL_NECI=FALSE
_MODUL_AIMS=TRUE
_MODUL_GECCO=FALSE
_ISWINDOWS=FALSE
_MRCC_EXEC=
_FITC_AO_SAVED=  0.000000000000000    
_FITC_MO_SAVED=  0.000000000000000    
_SHARED_FS=TRUE
_LSTYP=SEWARD
_INTYP=INTS
_GEOMTYP=ZMAT
_GRADTYP=ALASKA
_DIRECT=FALSE
_DKHO= -1.000000000000000    
_FNUC=  0.000000000000000    
_SYNCM=  0.000000000000000    
_BASIS=6-311G(D,P)
_ZCENTRE=MASS
_ZORIENT=  1.000000000000000    
_NELEC=  16.00000000000000    
!SPIN=  0.000000000000000    
_OPTCONV= 0.1705855561665459E-03
_QSDSTEP=  0.000000000000000    
_QSDIRC=  0.000000000000000    
_PROGRAM=FREQ
_CPUSTEP= 0.9999999999990905E-02
_SYSSTEP=  0.000000000000000    
_WALLSTEP=  0.000000000000000    
!DFMP2=  0.000000000000000    
!DFSCF=  0.000000000000000    
!SCSGRD=  0.000000000000000    
_CPUTOT=  80.25000000000000    
_CPUCCSD= 0.1500000000000057    
_SYSCCSD=  0.000000000000000    
_WALLCCSD= 0.1600000038743019    
_CPUF12=  0.000000000000000    
_SYSF12=  0.000000000000000    
_WALLF12=  0.000000000000000    
_CPUF12B=  0.000000000000000    
_SYSF12B=  0.000000000000000    
_WALLF12B=  0.000000000000000    
_CPUTRANS= 0.4399999999999977    
_SYSTRANS=  0.000000000000000    
_WALLTRANS= 0.2999999970197678    
_DFTEXFAC=  1.000000000000000    
_DMX=  0.000000000000000    
_DMY= 0.1577006643286374E-06
_DMZ=-0.8541519772507926    
_DMX_SCF=  0.000000000000000    
_DMY_SCF= 0.1477454811019277E-06
_DMZ_SCF= -1.106138457296606    
_FREQUENCIES= -767.2609699264343    
_HOMO=  7.100000000000000    
_EHOMO=-0.4396888240957469    
_LUMO=  2.200000000000000    
_ELUMO= 0.1272385444225053    
_EMP2= -114.2351711270317    
_EMP2_SING=-0.2123576277570590    
_EMP2_TRIP=-0.1257526587857405    
_EMP2_SCS= -114.2301360925973    
_ECSING=-0.2123576277570591    
_ECTRIP=-0.1257526587857405    
_ENERGC= -114.2351711270317    
_ENERG_CC=  0.000000000000000    
_ENERG_CV=  0.000000000000000    
_ENERG_VV=-0.3381102865427996    
_ENERGR= -113.8970608404889    
_ENERGY= -114.2351711270317    
_ENERGY_METHOD=MP2
_ENERGY_BASIS=6-311G(D,P)
_GEOMETRY_METHOD=
_GEOMETRY_BASIS=
_ENUC=  31.17909545768360    
_FREQSTEP=  14.00000000000000    
_GRADENERG= -114.2351643235453    
_GRADEXFAC=  9999.000000000000    
_GRADMETHOD=  8.000000000000000    
_NMRMETHOD=  0.000000000000000    
_NMRMAGNET=  0.000000000000000    
_GRADRECORD=TRUE
_VIRIAL=-0.4342102443468527E-02
!GRID_FREEZE= -1.000000000000000    
!NEESE_INDEX=  0.000000000000000    
_ITERATIONS=  1.000000000000000    
_LASTNELEC=  16.00000000000000    
_LASTSPIN=  0.000000000000000    
_LASTSYM=  1.000000000000000    
_MPP_PROG=  1.000000000000000    
_MSNSTATES=  0.000000000000000    
_RS2PHASE=  0.000000000000000    
_IPROC_MPP=  0.000000000000000    
_IPROC_MPPX=  0.000000000000000    
_NPROC_MPP=  6.000000000000000    
_NPROC_MPPX=  6.000000000000000    
_NPROC_SMP=  8.000000000000000    
_NUMSTEP=  0.000000000000000    
_OPTCONVMX= 0.1330216123905936E-03
_OPTCONVRMS= 0.8529277808327566E-04
_OPTGRAD= 0.5632023073760014E-04
_OPTGRADMX= 0.4244490338224229E-04
_OPTGRADRMS= 0.9386705122933356E-05
_OPTSTEP=  5.000000000000000    
_ORBITAL=  2100.200000000000    
_PI=  3.141592653589793    
_ECDIAG=-0.8697749741227420E-01
_EPDIAG=-0.8697749741227420E-01
_SEIG_MIN= 0.1389256388619426E-01
_SEWPROP=TRUE
_STATUS=  1.000000000000000    
_SYSTOT=  1.760000000000000    
_T1DIAG=  0.000000000000000    
_VERSION=  2022002.000000000    
_WALLTOT=  75.78000000000000    
_ZPE= 0.2421887976724662E-01
_DATE=25-Aug-25
_LASTORB=0
_METHODC=MP2
_OUTPUT=/home/zwa/Overlap_Integral_Project/overlap_integral_gaussian/molpro_files/formaldehyde/formalmp2/formaldehyde.out
_PGROUP=Cs
_TIME=11:50:12
_ANSATZ=
_LIBMOL=/usr/local/molpro/molpro_2022.2.3_sockets/lib/
_VIGRDC=  0.000000000000000    
!VIBCNT=  0.000000000000000    
!RGHFCNT=  0.000000000000000    
!SURFREC=  0.000000000000000    
!XSURFREC=  0.000000000000000    
!XPOLYREC=  0.000000000000000    
!ROTREC=  0.000000000000000    
!POLYREC=  0.000000000000000    
!DIPREC=  0.000000000000000    
!DIP4DREC=  0.000000000000000    
!DIPROT=  0.000000000000000    
!DIP4DROT=  0.000000000000000    
!PTREC=  0.000000000000000    
!PT4DREC=  0.000000000000000    
!VSCFREC=  0.000000000000000    
!VCIREC=  0.000000000000000    
!PVCIREC=  0.000000000000000    
!VMP2REC=  0.000000000000000    
!VMCSCFREC=  0.000000000000000    
!VMRCIREC=  0.000000000000000    
!VIBSTATEREC=  0.000000000000000    
!VIBSTATECNT=  0.000000000000000    
!VIBINFO=  0.000000000000000    
!GAREC=  0.000000000000000    
!SCFORB=  21002.00000000000    
!CIOCC=  7.000000000000000    
!CICORE=  2.000000000000000    
!DEFCORE=  2.000000000000000    
!SCORE=  0.000000000000000    
!CICLOS=  7.000000000000000    
!CIISTSYM=  1.000000000000000    
!CIISTMS2=  0.000000000000000    
!CIISTNEL=  12.00000000000000    
!NEWMOL= -1.000000000000000    
!NEWSYM= -1.000000000000000    
_SLFILES=slscratch
_NGSSTO=  9.000000000000000    
_SIN=SIN
_COS=COS
_TAN=TAN
_ACOS=ACOS
_ASIN=ASIN
_ATAN=ATAN
_COSH=COSH
_SINH=SINH
_TANH=TANH
_ABS=ABS
_MOD=MOD
_ERF=ERF
_REFC=REFC
_ERFC=ERFC
_HYPOT=HYPOT
_J0=J0
_J1=J1
_JN=JN
_GAMMA=GAMMA
_LGAMMA=LGAMMA
_Y0=Y0
_Y1=Y1
_YN=YN
_EXP=EXP
_LOG=LOG
_LOG10=LOG10
_SQRT=SQRT
_INT=INT
_NINT=NINT
_MAX=MAX
_MIN=MIN
_COSMO=  0.000000000000000    
_COSMOIT=  0.000000000000000    
_COSMOES=  0.000000000000000    
_COSMOEDS=  0.000000000000000    
_COSMOEC=  0.000000000000000    
_COSMOEDCORR=  0.000000000000000    
_FEPSI=  1.000000000000000    
_SL_IsMM=  0.000000000000000    
_SL_NSYM=  2.000000000000000    
_SL_System_BitSw=  0.000000000000000    
_SL_Unique_atoms=  0.000000000000000    
_SL_GRAD=  0.000000000000000    
_SL_MAXUPD_Hess=  5.000000000000000    
_SL_N_PRINT_COD=  5.000000000000000    
_SL_PRINT_CODES=  0.000000000000000    
_SL_BasType=  0.000000000000000    
_SL_Energy_Pred=  0.000000000000000    
_SL_New_Coords=  0.000000000000000    
_SL_Total_Nuclea=  0.000000000000000    
_SL_Highest_Mltp=  0.000000000000000    
_SL_Ref_Geom=  0.000000000000000    
_SL_Symmetry_ope=  1.000000000000000    
_SL_agrad=  0.000000000000000    
_SL_GrdMax=  0.000000000000000    
_SL_GrdNorm=  0.000000000000000    
_SL_GrdRMS=  0.000000000000000    
_SL_Hss_Q=  0.000000000000000    
_SL_Hss_X=  0.000000000000000    
_SL_BMxOld=  0.000000000000000    
_SL_KtB=  0.000000000000000    
_SL_TROld=  0.000000000000000    
_SL_No_of_Intern=  0.000000000000000    
_SL_Hess=  0.000000000000000    
_SL_K=  0.000000000000000    
!LATTICE= -1.000000000000000    
!NEWLATTICE=  0.000000000000000    
!LATGRAD_VAR=FALSE
!SEW_LATTICE=  1.000000000000000    
!AIC_ONEEL=  0.000000000000000    
!LOCAL=  0.000000000000000    
!SAVEDOM= -1.000000000000000    
!RESTDOM= -1.000000000000000    
!SAVEDOM_HF= -1.000000000000000    
!RESTDOM_HF= -1.000000000000000    
!HESSREC=  5300.200000000000    
!FREQREC=  5400.200000000000    
!NMODREC=  5450.200000000000    
!GTASKS=  0.000000000000000    
!HTASKS=  0.000000000000000    
!SAVEDOM_EOM= -1.000000000000000    
!RESTDOM_EOM= -1.000000000000000    
!GRADSTATE= -1.000000000000000    
!DEBUG=  0.000000000000000    
!CFIT_CPHF=  0.000000000000000    
!RDOMAUX_CPHF=  0.000000000000000    
!THRAO_CPHF= 0.1000000000000000E-11
!THRMO_CPHF= 0.1000000000000000E-11
!THROV_CPHF= 0.1000000000000000E-11
!THRSW_CPHF= 0.1000000000000000E-11
!THRPROD_CPHF= 0.1000000000000000E-11
!THRAOPR_CPHF= 0.1000000000000000E-11
!CFIT_SCFGRD=  0.000000000000000    
!RDOMAUX_SCFGRD=  0.000000000000000    
!THRAO_SCFGRD= 0.1000000000000000E-11
!THRMO_SCFGRD= 0.1000000000000000E-11
!THROV_SCFGRD= 0.1000000000000000E-11
!THRSW_SCFGRD= 0.1000000000000000E-11
!THRPROD_SCFGRD= 0.1000000000000000E-11
!THRAOPR_SCFGRD= 0.1000000000000000E-11
!LOCFIT_SCF=  0.000000000000000    
!LOCFIT_MP2=  0.000000000000000    
_RIDOM=  0.000000000000000    
!CC2_METHOD=  0.000000000000000    
_BASIS2006=FALSE
_SVDDEL= -1.000000000000000    
_SVDDELA= -1.000000000000000    
_SVDDELP= -1.000000000000000    
_SVDDELF= -1.000000000000000    
_SVDDELS= -1.000000000000000    
_SVDDEL_ABS= -1.000000000000000    
_SVDDELA_ABS= -1.000000000000000    
_SVDDELP_ABS= -1.000000000000000    
_SVDDELF_ABS= -1.000000000000000    
_SVDDELS_ABS= -1.000000000000000    
_MAXBASIS=  0.000000000000000    
!OPT_CONICAL=  0.000000000000000    
!CLEARSP_JGRID=  0.000000000000000    
_GRDHYBR=  0.000000000000000    
_STATEGRAD=  1.000000000000000    
_4EXT_NDISKS=  1.000000000000000    
!EMBEDFLAG=  1.000000000000000    
!EMBED=FALSE
!EMBED_F12=FALSE
!EMBEDNUC=  0.000000000000000    
_EMBEDENERGY=  0.000000000000000    
!EMBED_DFC=FALSE
!NUM_VOIDS=  0.000000000000000    
_IBODY=  0.000000000000000    
_EMBE_CORR=  0.000000000000000    
!EMBED_PROJ=FALSE
!EMB_PROJ_ZMU=  1000000.000000000    
!CORRECTION_HF=  0.000000000000000    
!EMBED_AORB=  0.000000000000000    
!EMBED_NACORR=  0.000000000000000    
!EMBED_MP2=FALSE
!EMBED_TRUNC_PERTURBATION=FALSE
!EMBED_FROZEN=  0.000000000000000    
!EMBED_ACTIVE=  0.000000000000000    
_CHANGE_BASIS=FALSE
_RESTORE_BASIS=FALSE
_FIX_EMBED_GUESS=FALSE
_EMBED_SCF=FALSE
_HUZINAGA_T=FALSE
_HUZINAGA_F=FALSE
_HUZINAGA=FALSE
_HUZINAGA_CORRECT=FALSE
!FASTLATGRAD=  1.000000000000000    
!FASTVLAMBDA= -1.000000000000000    
!IFORCE= -1.000000000000000    
!USESYM= -1.000000000000000    
_SINDEX=  0.000000000000000    
_AVDOM_OSV=  0.000000000000000    
_AVDOM_PNO=  0.000000000000000    
_AVDOM_PAO=  0.000000000000000    
_AVDOM_LMO=  0.000000000000000    
_CC2OSV_FLAG=  0.000000000000000    
_EOMCCSD_CONV=FALSE
_TMADC2_FLAG=FALSE
_PROPADC2_FLAG=FALSE
_LEN_VirQ=  0.000000000000000    
_GRDCC2LR_FLAG=FALSE
_GRDADC2_FLAG=FALSE
_RO_VGLOBAL=  0.000000000000000    
_OPT=FALSE
_FREQ=FALSE
_HESS=FALSE
_CMRCC_callName=EMPTY
_CMRCC_callCount=  0.000000000000000    
_GECCO_CIROOT=  1.000000000000000    
_SYM_CATION=  1.000000000000000    
_MON_A=FALSE
_MON_B=FALSE
GX1=  0.000000000000000    
GY1= 0.2648628637743160E-07
GZ1=-0.6057117311236216    
GX2=  0.000000000000000    
GY2= 0.9362480924248121    
GZ2= -1.194449042333614    
GX3=  0.000000000000000    
GY3=-0.9362483336451328    
GZ3= -1.194448986527932    
GX4=  0.000000000000000    
GY4=-0.4671959185093625E-08
GZ4= 0.6049506955288180    
CX1=  0.000000000000000    
CY1= 0.5005182731174136E-07
CZ1= -1.144629282296608    
HX2=  0.000000000000000    
HY2=  1.769252479386210    
HZ2= -2.257181559832063    
HX3=  0.000000000000000    
HY3= -1.769252935226552    
HZ3= -2.257181454374608    
OX4=  0.000000000000000    
OY4=-0.8828723325267571E-08
OZ4=  1.143191133451337    
[Atoms] Angs
C     1    6         0.0000000000        0.0000000265       -0.6057117311
H     2    1         0.0000000000        0.9362480924       -1.1944490423
H     3    1         0.0000000000       -0.9362483336       -1.1944489865
O     4    8         0.0000000000       -0.0000000047        0.6049506955
[GTO]
   1 0
 s    6  1.00
  0.4563240000D+04  0.1966650249D-02
  0.6820240000D+03  0.1523060193D-01
  0.1549730000D+03  0.7612690966D-01
  0.4445530000D+02  0.2608010331D+00
  0.1302900000D+02  0.6164620782D+00
  0.1827730000D+01  0.2210060280D+00
 s    3  1.00
  0.2096420000D+02  0.1146600807D+00
  0.4803310000D+01  0.9199996477D+00
  0.1459330000D+01 -0.3030682134D-02
 s    1  1.00
  0.4834560000D+00  0.1000000000D+01
 s    1  1.00
  0.1455850000D+00  0.1000000000D+01
 p    3  1.00
  0.2096420000D+02  0.4024869267D-01
  0.4803310000D+01  0.2375939567D+00
  0.1459330000D+01  0.8158538515D+00
 p    1  1.00
  0.4834560000D+00  0.1000000000D+01
 p    1  1.00
  0.1455850000D+00  0.1000000000D+01
 d    1  1.00
  0.6260000000D+00  0.1000000000D+01
  
   2 0
 s    3  1.00
  0.3386500000D+02  0.2549381454D-01
  0.5094790000D+01  0.1903731086D+00
  0.1158790000D+01  0.8521614860D+00
 s    1  1.00
  0.3258400000D+00  0.1000000000D+01
 s    1  1.00
  0.1027410000D+00  0.1000000000D+01
 p    1  1.00
  0.7500000000D+00  0.1000000000D+01
  
   3 0
 s    3  1.00
  0.3386500000D+02  0.2549381454D-01
  0.5094790000D+01  0.1903731086D+00
  0.1158790000D+01  0.8521614860D+00
 s    1  1.00
  0.3258400000D+00  0.1000000000D+01
 s    1  1.00
  0.1027410000D+00  0.1000000000D+01
 p    1  1.00
  0.7500000000D+00  0.1000000000D+01
  
   4 0
 s    6  1.00
  0.8588500000D+04  0.1895150083D-02
  0.1297230000D+04  0.1438590063D-01
  0.2992960000D+03  0.7073200310D-01
  0.8737710000D+02  0.2400010105D+00
  0.2567890000D+02  0.5947970261D+00
  0.3740040000D+01  0.2808020123D+00
 s    3  1.00
  0.4211750000D+02  0.1138890124D+00
  0.9628370000D+01  0.9208111006D+00
  0.2853320000D+01 -0.3274470358D-02
 s    1  1.00
  0.9056610000D+00  0.1000000000D+01
 s    1  1.00
  0.2556110000D+00  0.1000000000D+01
 p    3  1.00
  0.4211750000D+02  0.3651139738D-01
  0.9628370000D+01  0.2371529830D+00
  0.2853320000D+01  0.8197019412D+00
 p    1  1.00
  0.9056610000D+00  0.1000000000D+01
 p    1  1.00
  0.2556110000D+00  0.1000000000D+01
 d    1  1.00
  0.1292000000D+01  0.1000000000D+01


[MO]
 Sym=      1.1
 Ene=     -20.5705
 Spin= Alpha
 Occup=    2.000000
1 0.000004802505067
2 -0.000067603844953
3 0.000259277033727
4 0.000429831393252
5 0.0
6 -0.000000000006855
7 0.000084197436917
8 0.0
9 -0.000000000024297
10 0.000352798496195
11 0.0
12 -0.000000000267565
13 0.000279341387215
14 -0.000050132366287
15 -0.000114930509473
16 0.000165062875760
17 0.0
18 0.0
19 0.000000000086072
20 0.000009858413376
21 -0.000014767103762
22 0.000007120995598
23 0.0
24 -0.000024781345607
25 -0.000012530165297
26 0.000009858411759
27 -0.000014767397343
28 0.000007120846269
29 0.0
30 0.000024781289174
31 -0.000012530215439
32 0.55148423703756
33 0.47171025204762
34 0.005351194567285
35 -0.000769912933054
36 0.0
37 0.000000000928802
38 -0.001706639128988
39 0.0
40 -0.000000000495590
41 0.000586858817493
42 0.0
43 0.000000000262176
44 0.000065390916534
45 -0.000213930761338
46 0.000174705455088
47 0.000039225306250
48 0.0
49 0.0
50 0.000000000106232
 Sym=      2.1
 Ene=     -11.3414
 Spin= Alpha
 Occup=    2.000000
1 0.56346032511853
2 0.46665129973847
3 0.003635296806936
4 -0.000081893005121
5 0.0
6 -0.000000000418426
7 0.000247753407409
8 0.0
9 0.000000000721059
10 0.000244328627859
11 0.0
12 -0.000000000224956
13 0.000218943987375
14 -0.000437378815088
15 -0.000008372325767
16 0.000445751140855
17 0.0
18 0.0
19 -0.000000000419514
20 0.000375105876778
21 0.000027169578111
22 0.000160721384610
23 0.0
24 -0.000032995442647
25 0.000058028191810
26 0.000375105784031
27 0.000027170284144
28 0.000160720889314
29 0.0
30 0.000032995792761
31 0.000058028374474
32 -0.000194547602927
33 -0.000294180932886
34 0.000610809018834
35 -0.000409219793994
36 0.0
37 0.000000000016198
38 -0.000314718261070
39 0.0
40 0.000000000104501
41 -0.000507547599379
42 0.0
43 0.000000000047487
44 0.000237557095429
45 -0.000037160994134
46 -0.000160505327855
47 0.000197666321989
48 0.0
49 0.0
50 -0.000000000092330
 Sym=      3.1
 Ene=      -1.4007
 Spin= Alpha
 Occup=    2.000000
1 -0.059358857837642
2 -0.095833343056416
3 0.24503618668130
4 0.046003436487898
5 0.0
6 0.000000000800005
7 0.082288288743687
8 0.0
9 0.000000001589931
10 0.12022948067273
11 0.0
12 0.000000009682991
13 -0.009237568922497
14 -0.013884945484688
15 -0.020983938233138
16 0.034868883717826
17 0.0
18 0.0
19 -0.000000001103319
20 0.016971435679775
21 0.021778629020150
22 -0.005457799489150
23 0.0
24 -0.004232669810871
25 0.006434214165515
26 0.016971430344682
27 0.021778634194348
28 -0.005457791576375
29 0.0
30 0.004232674071481
31 0.006434212224396
32 -0.10615513086769
33 -0.17722420569499
34 0.50182585241592
35 0.35170355045828
36 0.0
37 -0.000000004704094
38 -0.061719435860658
39 0.0
40 -0.000000004928812
41 -0.094881986162124
42 0.0
43 -0.000000001006626
44 -0.038387429061618
45 -0.008417608281857
46 -0.008408935187236
47 0.016826543469093
48 0.0
49 0.0
50 -0.000000001361795
 Sym=      4.1
 Ene=      -0.8676
 Spin= Alpha
 Occup=    2.000000
1 -0.087793977287351
2 -0.14702226236323
3 0.40167109992912
4 0.25834030791732
5 0.0
6 0.000000050080193
7 -0.079031727370460
8 0.0
9 0.000000062681378
10 -0.11296054036842
11 0.0
12 0.000000010081414
13 -0.067442844493638
14 -0.010086598796657
15 0.014394815471676
16 -0.004308216675019
17 0.0
18 0.0
19 -0.000000008071982
20 0.10599903560521
21 0.15403048816986
22 0.005642988411670
23 0.0
24 -0.020990868198361
25 0.009148906098385
26 0.10599894521458
27 0.15403036648650
28 0.005642987034144
29 0.0
30 0.020990857257113
31 0.009148896267358
32 0.046972210589228
33 0.079383789256958
34 -0.23481004697102
35 -0.24349342838807
36 0.0
37 0.000000018455837
38 -0.067516207189397
39 0.0
40 0.000000030635839
41 -0.10214986272485
42 0.0
43 0.000000019402776
44 -0.066226172768847
45 -0.002085963629571
46 -0.004259534125825
47 0.006345497755396
48 0.0
49 0.0
50 -0.000000005048769
 Sym=      5.1
 Ene=      -0.6891
 Spin= Alpha
 Occup=    2.000000
1 0.000000020658234
2 0.000000035340356
3 -0.000000114455646
4 -0.000000027984868
5 0.0
6 0.17835887413597
7 -0.000000091681911
8 0.0
9 0.27789455197979
10 -0.000000134995301
11 0.0
12 0.13585619088244
13 -0.000000004930202
14 0.000000003746058
15 0.000000006404145
16 -0.000000010150203
17 0.0
18 0.0
19 0.003389200161864
20 0.10887429682020
21 0.16787263220516
22 0.041189556539868
23 0.0
24 -0.014931842423727
25 0.009656288482095
26 -0.10887426784569
27 -0.16787262003695
28 -0.041189544855523
29 0.0
30 -0.014931841454418
31 -0.009656292794517
32 -0.000000031575268
33 -0.000000053195853
34 0.000000153716119
35 0.000000231899852
36 0.0
37 0.15357603596296
38 0.000000162720633
39 0.0
40 0.24155397974785
41 0.000000240060926
42 0.0
43 0.17709724537475
44 0.000000173211872
45 0.000000006442560
46 0.000000011796518
47 -0.000000018239078
48 0.0
49 0.0
50 -0.019533733244857
 Sym=      6.1
 Ene=      -0.6481
 Spin= Alpha
 Occup=    2.000000
1 0.011634925925278
2 0.019439551237158
3 -0.075936159466527
4 0.052693912114865
5 0.0
6 -0.000000099040252
7 -0.16757537429262
8 0.0
9 -0.000000163483888
10 -0.26908345714709
11 0.0
12 -0.000000105448112
13 -0.064816413045492
14 0.003946206145285
15 0.026254182164189
16 -0.030200388309474
17 0.0
18 0.0
19 -0.000000011934600
20 0.056393440998500
21 0.081112148764769
22 0.035651498364818
23 0.0
24 -0.009152534474829
25 -0.003478640551313
26 0.056393541846197
27 0.081112300343629
28 0.035651539021201
29 0.0
30 0.009152546819349
31 -0.003478629897109
32 -0.036777837751125
33 -0.062292126067636
34 0.18921127988169
35 0.29391430174237
36 0.0
37 -0.000000111414645
38 0.23352106361603
39 0.0
40 -0.000000175023394
41 0.34242616453255
42 0.0
43 -0.000000130715826
44 0.25561536245462
45 0.011351201611982
46 0.012925447666925
47 -0.024276649278907
48 0.0
49 0.0
50 0.000000016293627
 Sym=      1.2
 Ene=      -0.5303
 Spin= Alpha
 Occup=    2.000000
1 0.0
2 0.0
3 0.0
4 0.0
5 0.14288046555928
6 0.0
7 0.0
8 0.24069896131773
9 0.0
10 0.0
11 0.19192321663188
12 0.0
13 0.0
14 0.0
15 0.0
16 0.0
17 -0.000000000048116
18 0.052168092903279
19 0.0
20 0.0
21 0.0
22 0.0
23 0.007859767546605
24 0.0
25 0.0
26 0.0
27 0.0
28 0.0
29 0.007859763553596
30 0.0
31 0.0
32 0.0
33 0.0
34 0.0
35 0.0
36 0.22110313670578
37 0.0
38 0.0
39 0.34686918186176
40 0.0
41 0.0
42 0.31739809650865
43 0.0
44 0.0
45 0.0
46 0.0
47 0.0
48 0.000000002930999
49 -0.028583590288566
50 0.0
 Sym=      7.1
 Ene=      -0.4397
 Spin= Alpha
 Occup=    2.000000
1 -0.000000001980194
2 -0.000000003749275
3 0.000000002279655
4 0.000000120473150
5 0.0
6 -0.083363124942113
7 0.000000005154602
8 0.0
9 -0.14032940326533
10 0.000000005810080
11 0.0
12 -0.027735072720122
13 0.000000064635626
14 0.000000000955531
15 0.000000010944524
16 -0.000000011900056
17 0.0
18 0.0
19 0.069439997164982
20 -0.099565273154146
21 -0.22192575088230
22 -0.12173694383685
23 0.0
24 0.004668318155993
25 -0.007272751376250
26 0.099565299615966
27 0.22192578697831
28 0.12173704111485
29 0.0
30 0.004668326654961
31 0.007272749512326
32 0.000000004894731
33 0.000000008498425
34 -0.000000031281566
35 -0.000000086491491
36 0.0
37 0.25088631688168
38 0.000000029032720
39 0.0
40 0.37902528924278
41 0.000000041725426
42 0.0
43 0.39582716918911
44 0.000000056707392
45 -0.000000001081757
46 0.000000003376532
47 -0.000000002294774
48 0.0
49 0.0
50 -0.009904942458051
 Sym=      2.2
 Ene=       0.1272
 Spin= Alpha
 Occup=    0.000000
1 0.0
2 0.0
3 0.0
4 0.0
5 0.18176535908126
6 0.0
7 0.0
8 0.26039957965449
9 0.0
10 0.0
11 0.73168817502383
12 0.0
13 0.0
14 0.0
15 0.0
16 0.0
17 0.000000001816797
18 -0.036704016788337
19 0.0
20 0.0
21 0.0
22 0.0
23 0.023512935231199
24 0.0
25 0.0
26 0.0
27 0.0
28 0.0
29 0.023512927128870
30 0.0
31 0.0
32 0.0
33 0.0
34 0.0
35 0.0
36 -0.18008151671961
37 0.0
38 0.0
39 -0.24080787892981
40 0.0
41 0.0
42 -0.53061495998009
43 0.0
44 0.0
45 0.0
46 0.0
47 0.0
48 -0.000000000498074
49 -0.005527335712978
50 0.0
 Sym=      8.1
 Ene=       0.1564
 Spin= Alpha
 Occup=    0.000000
1 0.043043251403429
2 0.070085974123711
3 -0.098786281760428
4 -1.79007707487137
5 0.0
6 0.000000018153264
7 0.081085706028526
8 0.0
9 0.000000053962165
10 0.061755111367755
11 0.0
12 -0.000000035646548
13 0.42809581872667
14 0.001877409973657
15 0.010863484177515
16 -0.012740894151172
17 0.0
18 0.0
19 -0.000000004129863
20 0.026078240061197
21 -0.070562729323324
22 1.32131512104716
23 0.0
24 0.010677952167001
25 -0.004608244613349
26 0.026078251953512
27 -0.070562706219964
28 1.32131457490672
29 0.0
30 -0.010677937327997
31 -0.004608239852870
32 0.000760484125821
33 0.000763762903841
34 -0.000082548240978
35 0.011409056866481
36 0.0
37 -0.000000015803685
38 -0.025991496341346
39 0.0
40 -0.000000024726812
41 -0.048071134655240
42 0.0
43 -0.000000022466833
44 -0.11347414303895
45 -0.003280794895552
46 -0.000514943798500
47 0.003795738694052
48 0.0
49 0.0
50 -0.000000001702608
 Sym=      9.1
 Ene=       0.2106
 Spin= Alpha
 Occup=    0.000000
1 -0.000000004638089
2 -0.000000010328766
3 0.000000051734169
4 -0.000000087601046
5 0.0
6 -0.14507205167427
7 -0.000000004747611
8 0.0
9 -0.096463457773637
10 -0.000000051036221
11 0.0
12 -1.09993352401002
13 0.000000055369427
14 -0.000000002526011
15 -0.000000001552074
16 0.000000004078085
17 0.0
18 0.0
19 -0.026564118239843
20 0.003878837684269
21 -0.21453057844240
22 1.87579388701134
23 0.0
24 0.028957562090879
25 -0.015457395499780
26 -0.003878882294178
27 0.21453045526944
28 -1.87579377567328
29 0.0
30 0.028957549130701
31 0.015457369477507
32 0.000000000586419
33 0.000000000879572
34 -0.000000000942248
35 -0.000000043297971
36 0.0
37 0.035153027671042
38 0.000000003555310
39 0.0
40 0.033231281832303
41 0.000000002751281
42 0.0
43 0.20630398282509
44 0.000000012160027
45 0.000000000177399
46 -0.000000001420767
47 0.000000001243368
48 0.0
49 0.0
50 0.007339690684991
 Sym=     10.1
 Ene=       0.3310
 Spin= Alpha
 Occup=    0.000000
1 -0.012030922661626
2 -0.021709130311914
3 0.003757397407854
4 1.43502791898665
5 0.0
6 0.000000010377136
7 0.015143243026337
8 0.0
9 -0.000000005241186
10 0.060500103284753
11 0.0
12 0.000000007426340
13 1.89778511356556
14 -0.000370213756154
15 -0.003959510307095
16 0.004329724063250
17 0.0
18 0.0
19 0.000000002603512
20 -0.009630795933896
21 0.10824922988847
22 0.089159512109876
23 0.0
24 0.001791402833796
25 0.011074130667313
26 -0.009630779707729
27 0.10824928895922
28 0.089159190760631
29 0.0
30 -0.001791399343557
31 0.011074118581443
32 0.038582939394431
33 0.062313545427821
34 -0.083667813326252
35 -1.92841165622659
36 0.0
37 -0.000000026384574
38 0.055707763875138
39 0.0
40 -0.000000035168968
41 0.077520594939166
42 0.0
43 -0.000000090133257
44 0.68101365729656
45 0.012140751066412
46 0.012594301795082
47 -0.024735052861494
48 0.0
49 0.0
50 0.000000001143462
 Sym=     11.1
 Ene=       0.4750
 Spin= Alpha
 Occup=    0.000000
1 -0.020856017245511
2 -0.036516341790497
3 -0.082842595716800
4 2.09172736096499
5 0.0
6 -0.000000044205182
7 -0.031750443096034
8 0.0
9 0.000000026905519
10 -0.10989217084416
11 0.0
12 -0.000000199967356
13 -0.67679993347620
14 0.008018153757176
15 0.003774922837754
16 -0.011793076594930
17 0.0
18 0.0
19 -0.000000037107422
20 -0.066599688994235
21 -1.33868712200029
22 0.068084243073983
23 0.0
24 0.029239933789453
25 -0.048078020839791
26 -0.066599726379187
27 -1.33868756211438
28 0.068084988171960
29 0.0
30 -0.029239908941245
31 -0.048077970893941
32 0.014064878084971
33 0.023940439934672
34 -0.066723310916963
35 -0.27944760013706
36 0.0
37 0.000000019355906
38 0.022201890302854
39 0.0
40 0.000000026093405
41 -0.001379437760620
42 0.0
43 0.000000096270092
44 0.26959500523800
45 0.010254149662222
46 -0.005927546482843
47 -0.004326603179379
48 0.0
49 0.0
50 0.000000001014390
 Sym=     12.1
 Ene=       0.5628
 Spin= Alpha
 Occup=    0.000000
1 0.000000002914074
2 0.000000002836483
3 -0.000000087226974
4 0.000001371134826
5 0.0
6 0.059093069345793
7 0.000000018482914
8 0.0
9 0.13236267045304
10 -0.000000072333919
11 0.0
12 2.32059624137414
13 -0.000000934089257
14 -0.000000026709519
15 0.000000038309544
16 -0.000000011600025
17 0.0
18 0.0
19 -0.058779281070527
20 -0.040226824659455
21 -1.33370427390367
22 -0.33372879416424
23 0.0
24 0.066829402651685
25 0.001835091145683
26 0.040226807269715
27 1.33370323637311
28 0.33372797802765
29 0.0
30 0.066829316720193
31 -0.001835165438177
32 -0.000000000311281
33 -0.000000000136671
34 -0.000000013547228
35 0.000000305238232
36 0.0
37 -0.12584315165245
38 0.000000017876860
39 0.0
40 -0.18380822286020
41 0.000000021368816
42 0.0
43 -0.54235293787825
44 -0.000000007701593
45 -0.000000000443906
46 -0.000000002875598
47 0.000000003319504
48 0.0
49 0.0
50 -0.015509223663017
 Sym=      3.2
 Ene=       0.5742
 Spin= Alpha
 Occup=    0.000000
1 0.0
2 0.0
3 0.0
4 0.0
5 -0.22664800630464
6 0.0
7 0.0
8 -0.95161148133619
9 0.0
10 0.0
11 1.16318777483730
12 0.0
13 0.0
14 0.0
15 0.0
16 0.0
17 -0.000000001502686
18 -0.025908014460701
19 0.0
20 0.0
21 0.0
22 0.0
23 -0.027436916446302
24 0.0
25 0.0
26 0.0
27 0.0
28 0.0
29 -0.027436900820332
30 0.0
31 0.0
32 0.0
33 0.0
34 0.0
35 0.0
36 0.009014972921641
37 0.0
38 0.0
39 0.002481654042043
40 0.0
41 0.0
42 -0.041990079005797
43 0.0
44 0.0
45 0.0
46 0.0
47 0.0
48 -0.000000000240538
49 0.024381683919559
50 0.0
 Sym=     13.1
 Ene=       0.7397
 Spin= Alpha
 Occup=    0.000000
1 -0.000000041606661
2 -0.000000084990451
3 0.000000667997591
4 -0.000002288342075
5 0.0
6 -0.25643529899495
7 -0.000000124736487
8 0.0
9 -1.01401545444863
10 -0.000000461201936
11 0.0
12 1.92301559407869
13 0.000000571811907
14 0.000000042601914
15 -0.000000065307790
16 0.000000022705876
17 0.0
18 0.0
19 -0.092877038692560
20 0.052645470096528
21 0.36063865817370
22 -1.50588929763550
23 0.0
24 0.035567182783722
25 -0.048120283151175
26 -0.052645558543792
27 -0.36063824630046
28 1.50589063268899
29 0.0
30 0.035567387784864
31 0.048120371465203
32 -0.000000011491028
33 -0.000000019511413
34 0.000000040727693
35 0.000000457252398
36 0.0
37 -0.000701255338634
38 -0.000000017061487
39 0.0
40 -0.016492302894217
41 -0.000000003858434
42 0.0
43 -0.075626355553393
44 -0.000000469795613
45 -0.000000006658201
46 0.000000001533774
47 0.000000005124427
48 0.0
49 0.0
50 0.026966345960769
 Sym=     14.1
 Ene=       0.7998
 Spin= Alpha
 Occup=    0.000000
1 0.075252796407579
2 0.15633837880355
3 -1.16764532567144
4 3.59644368282860
5 0.0
6 -0.000000168037278
7 0.19228487112675
8 0.0
9 -0.000000625495017
10 0.82098817461290
11 0.0
12 0.000000935094637
13 -0.89316973243398
14 -0.076759330274371
15 0.071157523794212
16 0.005601806480159
17 0.0
18 0.0
19 -0.000000099512829
20 0.050792736120099
21 0.000382584831811
22 -1.16741788973721
23 0.0
24 0.12588310450777
25 -0.054018985047482
26 0.050792685123979
27 0.000381689097589
28 -1.16741561328984
29 0.0
30 -0.12588306154526
31 -0.054018885677770
32 0.015348761318051
33 0.026572195725968
34 -0.052340138506920
35 -0.69489318311582
36 0.0
37 0.000000012888643
38 0.004410340771611
39 0.0
40 0.000000017079518
41 -0.020109904839302
42 0.0
43 -0.000000005441781
44 0.78734383890477
45 0.010112481805197
46 0.003340338342301
47 -0.013452820147498
48 0.0
49 0.0
50 0.000000019022844
 Sym=     15.1
 Ene=       0.8649
 Spin= Alpha
 Occup=    0.000000
1 -0.096692775853424
2 -0.20350341998328
3 1.46510114018875
4 -1.13342278511935
5 0.0
6 -0.000000003632117
7 0.19330836112856
8 0.0
9 -0.000000113281601