[Molden Format]
[Molpro variables]
_NUMVAR=  1035.000000000000    
_AVOGAD= 0.6022140760000000E+24
_BOLTZ= 0.1380649000000000E-22
_CLIGHTSI=  299792458.0000000    
_JOULE= 0.4359744722207100E-17
_JPCAL=  4.184000000000000    
_PLANCK= 0.6626070150000000E-33
_BOHR= 0.5291772109030000E-10
_ECHARG= 0.1602176634000000E-18
_ENULL= 0.8854187812800001E-11
_MU= 0.1660539066600000E-26
_EMASS= 0.9109383701500001E-30
_AMU2AU=  1822.888486217313    
_CLIGHT=  29979245800.00000    
_EV= 0.3674932217565494E-01
_KJOULE= 0.3808798847133432E-03
_KJOULE/MOL= 0.3808798847133432E-03
_CM= 0.4556335252912009E-05
_CM-1= 0.4556335252912009E-05
_DEB2SI= 0.3335640951981520E-29
_KCAL= 0.1593601437640628E-02
_KCAL/MOL= 0.1593601437640628E-02
_KELVIN= 0.3166811563455608E-05
_HERTZ= 0.1519829846057038E-15
_HZ= 0.1519829846057038E-15
_TOA= 0.5291772109030000    
_TOANG= 0.5291772109030000    
_TORAD= 0.1745329251994330E-01
_TOCM=  219474.6313631965    
_TODEBYE=  2.541746473194078    
_TOE= 0.4803204712570263E-09
_TOEV=  27.21138624598803    
_TOHERTZ=  6579683920501656.    
_TOHZ=  6579683920501656.    
_TOK=  315775.0248040668    
_TOKCAL=  627.5094740630558    
_TOKELVIN=  315775.0248040668    
_TOKJ=  2625.499639479825    
_TOKJOULE=  2625.499639479825    
_TOKG= 0.1660539066600000E-26
_ANG=  1.889726124625770    
_ANGSTROM=  1.889726124625770    
_RPAREF=  0.000000000000000    
_RPADISS=  0.000000000000000    
_IGNORE_UNDEF=  2.000000000000000    
_STRICTCHECK=  0.000000000000000    
!SEWARD=  0.000000000000000    
!MULTI=  0.000000000000000    
!DFMULTI=  0.000000000000000    
_SEW_ONEEL=  0.000000000000000    
_CPPDONE=FALSE
_DKROLL_DONE=  0.000000000000000    
_FNUC_DONE=  0.000000000000000    
_FOCKDONE=TRUE
_GRADONE=FALSE
_HESSDONE=TRUE
_INTDONE=TRUE
_SCFDONE=TRUE
_MODUL_BLOCK=FALSE
_MODUL_SLATER=FALSE
_MODUL_MRCC=FALSE
_MODUL_NBO6=FALSE
_MODUL_NECI=FALSE
_MODUL_AIMS=TRUE
_MODUL_HDF5=FALSE
_MODUL_GECCO=FALSE
_ISWINDOWS=FALSE
_MRCC_EXEC=
_FITC_AO_SAVED=FALSE
_FITC_MO_SAVED=FALSE
_SHARED_FS=TRUE
_LSTYP=SEWARD
_INTYP=INTS
_GEOMTYP=ZMAT
_GRADTYP=ALASKA
_DIRECT=FALSE
_DKHO= -1.000000000000000    
_FNUC=  0.000000000000000    
_SYNCM=  0.000000000000000    
_BASIS=6-311G(D,P)
_ZCENTRE=MASS
_ZORIENT=  1.000000000000000    
_NELEC=  2.000000000000000    
!SPIN=  0.000000000000000    
_OPTCONV= 0.2013683033034542E-04
_QSDSTEP=  0.000000000000000    
_QSDIRC=  0.000000000000000    
_PROGRAM=FREQ
_CPUSTEP= 0.2000000000000002E-01
_SYSSTEP= 0.1000000000000001E-01
_WALLSTEP= 0.3000000000000000E-01
!DFSCF=  0.000000000000000    
!SCSGRD=  0.000000000000000    
_NCEN=  2.000000000000000    
_CPUTOT= 0.4700000000000000    
_DFTEXFAC=  1.000000000000000    
_DMX=  0.000000000000000    
_DMY=  0.000000000000000    
_DMZ=  0.000000000000000    
_DMX_SCF=  0.000000000000000    
_DMY_SCF=  0.000000000000000    
_DMZ_SCF=  0.000000000000000    
_FREQUENCIES= 0.1887589482626948E-15
_HOMO=  1.100000000000000    
_EHOMO=-0.5961092211476220    
_LUMO=  1.500000000000000    
_ELUMO= 0.1670061539452381    
_ENERGY= -1.132490910497699    
_ENERGY_METHOD=HF
_ENERGY_BASIS=6-311G(D,P)
_GEOMETRY_METHOD=HF
_GEOMETRY_BASIS=6-311G(D,P)
_ENUC= 0.7194982012300695    
_GRADENERG= -1.132490910333201    
_GRADEXFAC=  9999.000000000000    
_GRADMETHOD=  1.000000000000000    
_NMRMETHOD=  0.000000000000000    
_NMRMAGNET=  0.000000000000000    
_VIRIAL= 0.1598459830912383E-04
!GRID_FREEZE= -1.000000000000000    
!NEESE_INDEX=  0.000000000000000    
_ITERATIONS=  2.000000000000000    
_LASTNELEC=  2.000000000000000    
_LASTSPIN=  0.000000000000000    
_LASTSYM=  1.000000000000000    
_MPP_PROG=  0.000000000000000    
_MSNSTATES=  0.000000000000000    
_RS2PHASE=  0.000000000000000    
_IPROC_MPP=  0.000000000000000    
_IPROC_MPPX=  0.000000000000000    
_NPROC_MPP=  1.000000000000000    
_NPROC_MPPX=  1.000000000000000    
_NPROC_SMP=  6.000000000000000    
_NUMSTEP=  0.000000000000000    
_OPTCONVMX= 0.1423888927819020E-04
_OPTCONVRMS= 0.1423888927820638E-04
_OPTGRAD= 0.1626438098419758E-04
_OPTGRADMX= 0.1150065408572765E-04
_OPTGRADRMS= 0.6639905732251625E-05
_OPTSTEP=  3.000000000000000    
_ORBITAL=  2100.200000000000    
_PI=  3.141592653589793    
_SEIG_MIN= 0.1611927970957035E-01
_SEWPROP=TRUE
_STATUS=  1.000000000000000    
_SYSTOT= 0.1500000000000000    
_VERSION=  2022003.000000000    
_WALLTOT= 0.6000000000000000    
_ZPE= 0.1046661635440357E-01
_DATE=16-Jul-25
_LASTORB=0
_OUTPUT=/home/lme/overlap_integral_gaussian/molpro_files/h2.out
_PGROUP=D2h
_TIME=10:26:06
_LIBMOL=/usr/local/molpro/molpro_2022.3.0_sockets/lib/
_VIGRDC=  0.000000000000000    
!VIBCNT=  0.000000000000000    
!RGHFCNT=  0.000000000000000    
!SURFREC=  0.000000000000000    
!XSURFREC=  0.000000000000000    
!XPOLYREC=  0.000000000000000    
!ROTREC=  0.000000000000000    
!POLYREC=  0.000000000000000    
!DIPREC=  0.000000000000000    
!DIP4DREC=  0.000000000000000    
!DIPROT=  0.000000000000000    
!DIP4DROT=  0.000000000000000    
!PTREC=  0.000000000000000    
!PT4DREC=  0.000000000000000    
!VSCFREC=  0.000000000000000    
!VCIREC=  0.000000000000000    
!PVCIREC=  0.000000000000000    
!VMP2REC=  0.000000000000000    
!VMCSCFREC=  0.000000000000000    
!VMRCIREC=  0.000000000000000    
!VIBSTATEREC=  0.000000000000000    
!VIBSTATECNT=  0.000000000000000    
!VIBINFO=  0.000000000000000    
!GAREC=  0.000000000000000    
!SCFORB=  21002.00000000000    
!DEFCORE=  0.000000000000000    
!SCORE=  0.000000000000000    
!NEWMOL=  0.000000000000000    
!NEWSYM=  0.000000000000000    
_SLFILES=slscratch
_NGSSTO=  9.000000000000000    
_SIN=SIN
_COS=COS
_TAN=TAN
_ACOS=ACOS
_ASIN=ASIN
_ATAN=ATAN
_COSH=COSH
_SINH=SINH
_TANH=TANH
_ABS=ABS
_MOD=MOD
_ERF=ERF
_REFC=REFC
_ERFC=ERFC
_HYPOT=HYPOT
_J0=J0
_J1=J1
_JN=JN
_GAMMA=GAMMA
_LGAMMA=LGAMMA
_Y0=Y0
_Y1=Y1
_YN=YN
_EXP=EXP
_LOG=LOG
_LOG10=LOG10
_SQRT=SQRT
_INT=INT
_NINT=NINT
_MAX=MAX
_MIN=MIN
_COSMO=  0.000000000000000    
_COSMOIT=  0.000000000000000    
_COSMOES=  0.000000000000000    
_COSMOEDS=  0.000000000000000    
_COSMOEC=  0.000000000000000    
_COSMOEDCORR=  0.000000000000000    
_FEPSI=  1.000000000000000    
_SL_IsMM=  0.000000000000000    
_SL_NSYM=  8.000000000000000    
_SL_System_BitSw=  0.000000000000000    
_SL_Unique_atoms=  0.000000000000000    
_SL_GRAD=  0.000000000000000    
_SL_MAXUPD_Hess=  5.000000000000000    
_SL_N_PRINT_COD=  5.000000000000000    
_SL_PRINT_CODES=  0.000000000000000    
_SL_BasType=  0.000000000000000    
_SL_Energy_Pred=  0.000000000000000    
_SL_New_Coords=  0.000000000000000    
_SL_Total_Nuclea=  0.000000000000000    
_SL_Highest_Mltp=  0.000000000000000    
_SL_Ref_Geom=  0.000000000000000    
_SL_Symmetry_ope=  1.000000000000000    
_SL_agrad=  0.000000000000000    
_SL_GrdMax=  0.000000000000000    
_SL_GrdNorm=  0.000000000000000    
_SL_GrdRMS=  0.000000000000000    
_SL_Hss_Q=  0.000000000000000    
_SL_Hss_X=  0.000000000000000    
_SL_BMxOld=  0.000000000000000    
_SL_KtB=  0.000000000000000    
_SL_TROld=  0.000000000000000    
_SL_No_of_Intern=  0.000000000000000    
_SL_Hess=  0.000000000000000    
_SL_K=  0.000000000000000    
!LATTICE= -1.000000000000000    
!NEWLATTICE=  0.000000000000000    
!LATGRAD_VAR=FALSE
!SEW_LATTICE=  1.000000000000000    
!AIC_ONEEL=  0.000000000000000    
!LOCAL=  0.000000000000000    
!SAVEDOM= -1.000000000000000    
!RESTDOM= -1.000000000000000    
!SAVEDOM_HF= -1.000000000000000    
!RESTDOM_HF= -1.000000000000000    
!HESSREC=  5300.200000000000    
!FREQREC=  5400.200000000000    
!NMODREC=  5450.200000000000    
!GTASKS=  0.000000000000000    
!HTASKS=  0.000000000000000    
!SAVEDOM_EOM= -1.000000000000000    
!RESTDOM_EOM= -1.000000000000000    
!GRADSTATE= -1.000000000000000    
!DEBUG=  0.000000000000000    
!CFIT_CPHF=  0.000000000000000    
!RDOMAUX_CPHF=  0.000000000000000    
!THRAO_CPHF= 0.1000000000000000E-11
!THRMO_CPHF= 0.1000000000000000E-11
!THROV_CPHF= 0.1000000000000000E-11
!THRSW_CPHF= 0.1000000000000000E-11
!THRPROD_CPHF= 0.1000000000000000E-11
!THRAOPR_CPHF= 0.1000000000000000E-11
!CFIT_SCFGRD=  0.000000000000000    
!RDOMAUX_SCFGRD=  0.000000000000000    
!THRAO_SCFGRD= 0.1000000000000000E-11
!THRMO_SCFGRD= 0.1000000000000000E-11
!THROV_SCFGRD= 0.1000000000000000E-11
!THRSW_SCFGRD= 0.1000000000000000E-11
!THRPROD_SCFGRD= 0.1000000000000000E-11
!THRAOPR_SCFGRD= 0.1000000000000000E-11
!LOCFIT_SCF=  0.000000000000000    
!LOCFIT_MP2=  0.000000000000000    
_RIDOM=  0.000000000000000    
!CC2_METHOD=  0.000000000000000    
_BASIS2006=FALSE
_SVDDEL= -1.000000000000000    
_SVDDELA= -1.000000000000000    
_SVDDELP= -1.000000000000000    
_SVDDELF= -1.000000000000000    
_SVDDELS= -1.000000000000000    
_SVDDEL_ABS= -1.000000000000000    
_SVDDELA_ABS= -1.000000000000000    
_SVDDELP_ABS= -1.000000000000000    
_SVDDELF_ABS= -1.000000000000000    
_SVDDELS_ABS= -1.000000000000000    
_MAXBASIS=  0.000000000000000    
!OPT_CONICAL=  0.000000000000000    
!CLEARSP_JGRID=  0.000000000000000    
_GRDHYBR=  0.000000000000000    
_STATEGRAD=  1.000000000000000    
_4EXT_NDISKS=  1.000000000000000    
!EMBEDFLAG=  1.000000000000000    
!EMBED=FALSE
!EMBED_F12=FALSE
!EMBEDNUC=  0.000000000000000    
_EMBEDENERGY=  0.000000000000000    
!EMBED_DFC=FALSE
!NUM_VOIDS=  0.000000000000000    
_IBODY=  0.000000000000000    
_EMBE_CORR=  0.000000000000000    
!EMBED_PROJ=FALSE
!EMB_PROJ_ZMU=  1000000.000000000    
!CORRECTION_HF=  0.000000000000000    
!EMBED_AORB=  0.000000000000000    
!EMBED_NACORR=  0.000000000000000    
!EMBED_MP2=FALSE
!EMBED_TRUNC_PERTURBATION=FALSE
!EMBED_FROZEN=  0.000000000000000    
!EMBED_ACTIVE=  0.000000000000000    
_CHANGE_BASIS=FALSE
_RESTORE_BASIS=FALSE
_FIX_EMBED_GUESS=FALSE
_EMBED_SCF=FALSE
_HUZINAGA_T=FALSE
_HUZINAGA_F=FALSE
_HUZINAGA=FALSE
_HUZINAGA_CORRECT=FALSE
!FASTLATGRAD=  1.000000000000000    
!FASTVLAMBDA= -1.000000000000000    
!IFORCE= -1.000000000000000    
!USESYM= -1.000000000000000    
_SINDEX=  0.000000000000000    
_AVDOM_OSV=  0.000000000000000    
_AVDOM_PNO=  0.000000000000000    
_AVDOM_PAO=  0.000000000000000    
_AVDOM_LMO=  0.000000000000000    
_CC2OSV_FLAG=  0.000000000000000    
_EOMCCSD_CONV=FALSE
_TMADC2_FLAG=FALSE
_PROPADC2_FLAG=FALSE
_LEN_VirQ=  0.000000000000000    
_GRDCC2LR_FLAG=FALSE
_GRDADC2_FLAG=FALSE
_RO_VGLOBAL=  0.000000000000000    
_OPT=FALSE
_FREQ=FALSE
_HESS=FALSE
_CMRCC_callName=EMPTY
_CMRCC_callCount=  0.000000000000000    
_GECCO_CIROOT=  1.000000000000000    
_SYM_CATION=  1.000000000000000    
_MON_A=FALSE
_MON_B=FALSE
GX1= -0.000000000000000    
GY1= -0.000000000000000    
GZ1=-0.3677404682863052    
GX2= -0.000000000000000    
GY2= -0.000000000000000    
GZ2= 0.3677404682863052    
HX1=  0.000000000000000    
HY1=  0.000000000000000    
HZ1=-0.6949287700027454    
HX2=  0.000000000000000    
HY2=  0.000000000000000    
HZ2= 0.6949287700027454    
[Atoms] Angs
H     1    1         0.0000000000        0.0000000000       -0.3677404683
H     2    1         0.0000000000        0.0000000000        0.3677404683
[GTO]
   1 0
 s    3  1.00
  0.3386500000D+02  0.2549381454D-01
  0.5094790000D+01  0.1903731086D+00
  0.1158790000D+01  0.8521614860D+00
 s    1  1.00
  0.3258400000D+00  0.1000000000D+01
 s    1  1.00
  0.1027410000D+00  0.1000000000D+01
 p    1  1.00
  0.7500000000D+00  0.1000000000D+01
  
   2 0
 s    3  1.00
  0.3386500000D+02  0.2549381454D-01
  0.5094790000D+01  0.1903731086D+00
  0.1158790000D+01  0.8521614860D+00
 s    1  1.00
  0.3258400000D+00  0.1000000000D+01
 s    1  1.00
  0.1027410000D+00  0.1000000000D+01
 p    1  1.00
  0.7500000000D+00  0.1000000000D+01


[MO]
 Sym=      1.1
 Ene=      -0.5961
 Spin= Alpha
 Occup=    2.000000
1 0.18612006959925
2 0.28784003543681
3 0.13258946115171
4 0.0
5 0.0
6 0.022825485772854
7 0.18612006959925
8 0.28784003543681
9 0.13258946115171
10 0.0
11 0.0
12 -0.022825485772854
 Sym=      1.5
 Ene=       0.1670
 Spin= Alpha
 Occup=    0.000000
1 0.070435623468378
2 -0.19240200437166
3 2.37138721016399
4 0.0
5 0.0
6 -0.073008264713127
7 -0.070435623468378
8 0.19240200437166
9 -2.37138721016399
10 0.0
11 0.0
12 -0.073008264713127
 Sym=      2.1
 Ene=       0.3064
 Spin= Alpha
 Occup=    0.000000
1 -0.049267954392486
2 -0.71063176096526
3 0.84693220894902
4 0.0
5 0.0
6 -0.001128790560720
7 -0.049267954392486
8 -0.71063176096526
9 0.84693220894902
10 0.0
11 0.0
12 0.001128790560720
 Sym=      2.5
 Ene=       0.6459
 Spin= Alpha
 Occup=    0.000000
1 0.10034558194689
2 2.04382509748666
3 -2.29358159218216
4 0.0
5 0.0
6 0.16659366047875
7 -0.10034558194689
8 -2.04382509748666
9 2.29358159218216
10 0.0
11 0.0
12 0.16659366047875
 Sym=      1.2
 Ene=       1.3330
 Spin= Alpha
 Occup=    0.000000
1 0.0
2 0.0
3 0.0
4 0.58033299496360
5 0.0
6 0.0
7 0.0
8 0.0
9 0.0
10 0.58033299496360
11 0.0
12 0.0
 Sym=      1.3
 Ene=       1.3330
 Spin= Alpha
 Occup=    0.000000
1 0.0
2 0.0
3 0.0
4 0.0
5 0.58033299496360
6 0.0
7 0.0
8 0.0
9 0.0
10 0.0
11 0.58033299496360
12 0.0
 Sym=      3.1
 Ene=       1.8207
 Spin= Alpha
 Occup=    0.000000
1 0.33568340245118
2 -0.73682555687576
3 0.35948712122926
4 0.0
5 0.0
6 0.59260500644065
7 0.33568340245118
8 -0.73682555687576
9 0.35948712122926
10 0.0
11 0.0
12 -0.59260500644065
 Sym=      1.6
 Ene=       2.1018
 Spin= Alpha
 Occup=    0.000000
1 0.0
2 0.0
3 0.0
4 0.98496651873026
5 0.0
6 0.0
7 0.0
8 0.0
9 0.0
10 -0.98496651873026
11 0.0
12 0.0
 Sym=      1.7
 Ene=       2.1018
 Spin= Alpha
 Occup=    0.000000
1 0.0
2 0.0
3 0.0
4 0.0
5 0.98496651873026
6 0.0
7 0.0
8 0.0
9 0.0
10 0.0
11 -0.98496651873026
12 0.0
 Sym=      3.5
 Ene=       2.1979
 Spin= Alpha
 Occup=    0.000000
1 -0.55313066298998
2 3.50192375785990
3 -1.60288200433759
4 0.0
5 0.0
6 1.43398547486626
7 0.55313066298998
8 -3.50192375785990
9 1.60288200433759
10 0.0
11 0.0
12 1.43398547486626
 Sym=      4.1
 Ene=       2.7096
 Spin= Alpha
 Occup=    0.000000
1 1.08650894738474
2 -0.97152284799852
3 0.34090228886434
4 0.0
5 0.0
6 -0.41887401661135
7 1.08650894738474
8 -0.97152284799852
9 0.34090228886434
10 0.0
11 0.0
12 0.41887401661135
 Sym=      4.5
 Ene=       3.7119
 Spin= Alpha
 Occup=    0.000000
1 1.14025423572084
2 1.68757396126582
3 -0.24305986879420
4 0.0
5 0.0
6 1.86976389937919
7 -1.14025423572084
8 -1.68757396126582
9 0.24305986879420
10 0.0
11 0.0
12 1.86976389937919
 [FREQ]
      0.00
      0.00
      0.00
      0.00
      0.00
   4594.31
 [FR-COORD]
H          0.0000000000        0.0000000000       -0.6949287700
H          0.0000000000        0.0000000000        0.6949287700
 [FR-NORM-COORD]
 Vibration                    1
          0.00000000          0.70435636         -0.00000000
          0.00000000          0.70435636         -0.00000000
 Vibration                    2
          0.00000000          0.00000000          0.70435636
         -0.00000000         -0.00000000          0.70435636
 Vibration                    3
          0.70435636         -0.00000000         -0.00000000
          0.70435636         -0.00000000         -0.00000000
 Vibration                    4
         -0.00000000          0.70435636          0.00000000
          0.00000000         -0.70435636          0.00000000
 Vibration                    5
          0.70435636          0.00000000         -0.00000000
         -0.70435636         -0.00000000         -0.00000000
 Vibration                    6
         -0.00000000         -0.00000000          0.70435636
         -0.00000000         -0.00000000         -0.70435636
