
 Working directory              : /tmp/lme/molpro.d666Eitaar/
 Global scratch directory       : /tmp/lme/molpro.d666Eitaar/
 Wavefunction directory         : /home/lme/wfu/
 Main file repository           : /tmp/lme/molpro.d666Eitaar/

 id        : liedlgroup

 Nodes     nprocs
 sv1-c724     6
 GA implementation: MPI file
 GA implementation (serial work in mppx): MPI file

 Using customized tuning parameters: mindgm=1; mindgv=20; mindgc=4; mindgr=1; noblas=0; minvec=7
 default implementation of scratch files=sf  


 Variables initialized (1025), CPU time= 0.01 sec
 memory,100,m
 orient,mass
 geometry = {
 H, 0.0, 0.0, -0.37
 H, 0.0, 0.0, 0.37
 }
 mass,iso
 basis=6-311g(d,p)
 hf
 fci
 
 Commands initialized (840), CPU time= 0.01 sec, 684 directives.
 Default parameters read. Elapsed time= 0.11 sec

 Checking input...
 Passed
1


                                         ***  PROGRAM SYSTEM MOLPRO  ***
                                       Copyright, TTI GmbH Stuttgart, 2015
                                    Version 2022.3 linked Wed Nov 30 12:40:34 2022


 **********************************************************************************************************************************
 LABEL *                                                                                 
  (6 PROC) 64 bit mpp version                                                            DATE: 05-Aug-25          TIME: 11:23:36  
 **********************************************************************************************************************************

 SHA1:             e31ec9a5ea85254ab76f59d122cbdd51c71cf98b
 **********************************************************************************************************************************

 Memory per process:       100 MW
 Total memory per node:    600 MW

 GA preallocation disabled
 GA check disabled

 Variable memory set to 100.0 MW

 ZCENTRE=MASS


 Geometry recognized as XYZ



 Using masses of most abundant isotopes

 **********************************************************************************************************************************
 SETTING BASIS          =    6-311G(D,P)


 Recomputing integrals since basis changed


 Using spherical harmonics

 Library entry H      S 6-311G               selected for orbital group  1
 Library entry H      P 6-311G**             selected for orbital group  1


 PROGRAM * SEWARD (Integral evaluation for generally contracted gaussian basis sets)     Author: Roland Lindh, 1990

 Geometry written to block  1 of record 700

 Orientation using atomic masses  
 Molecule type: Linear
 Symmetry elements: X,Y,Z
 Rotational constants:    1831.4649772   1831.4649772      0.0000000 GHz

 Point group  D2h 



 ATOMIC COORDINATES

 NR  ATOM    CHARGE       X              Y              Z

   1  H       1.00    0.000000000    0.000000000   -0.699198666
   2  H       1.00    0.000000000    0.000000000    0.699198666

 Bond lengths in Bohr (Angstrom)

 1-2  1.398397332
     ( 0.740000000)

 NUCLEAR CHARGE:                    2
 NUMBER OF PRIMITIVE AOS:          16
 NUMBER OF SYMMETRY AOS:           16
 NUMBER OF CONTRACTIONS:           12   (    4Ag  +    1B3u +    1B2u +    0B1g +    4B1u +    1B2g +    1B3g +    0Au  )
 NUMBER OF INNER CORE ORBITALS:     0   (    0Ag  +    0B3u +    0B2u +    0B1g +    0B1u +    0B2g +    0B3g +    0Au  )
 NUMBER OF OUTER CORE ORBITALS:     0   (    0Ag  +    0B3u +    0B2u +    0B1g +    0B1u +    0B2g +    0B3g +    0Au  )
 NUMBER OF VALENCE ORBITALS:        2   (    1Ag  +    0B3u +    0B2u +    0B1g +    1B1u +    0B2g +    0B3g +    0Au  )


 NUCLEAR REPULSION ENERGY    0.71510434

 Eigenvalues of metric

         1 0.140E+00 0.578E+00 0.137E+01 0.404E+01
         2 0.148E+01
         3 0.148E+01
         5 0.164E-01 0.756E-01 0.251E+00 0.153E+01
         6 0.520E+00
         7 0.520E+00


 Contracted 2-electron integrals neglected if value below      1.0D-11
 AO integral compression algorithm  1   Integral accuracy      1.0D-11

     1.573 MB (compressed) written to integral file (100.0%)

     Node minimum: 0.262 MB, node maximum: 0.262 MB


 NUMBER OF SORTED TWO-ELECTRON INTEGRALS:         75.     BUFFER LENGTH:  32768
 NUMBER OF SEGMENTS:   1  SEGMENT LENGTH:         75      RECORD LENGTH: 524288

 Memory used in sort:       0.56 MW

 SORT1 READ        1800. AND WROTE          75. INTEGRALS IN      1 RECORDS. CPU TIME:     0.01 SEC, REAL TIME:     0.02 SEC
 SORT2 READ         771. AND WROTE         771. INTEGRALS IN      6 RECORDS. CPU TIME:     0.01 SEC, REAL TIME:     0.01 SEC

 Node minimum:          46.  Node maximum:         314. integrals

 OPERATOR DM      FOR CENTER  0  COORDINATES:    0.000000    0.000000    0.000000


 **********************************************************************************************************************************
 DATASETS  * FILE   NREC   LENGTH (MB)   RECORD NAMES
              1      18       28.56       500      610      700      900      950      970     1000      129      960     1100   
                                          VAR    BASINP    GEOM    SYMINP    ZMAT    AOBASIS   BASIS     P2S    ABASIS      S 
                                         1400     1410     1200     1210     1080     1600     1650     1700   
                                           T        V       H0       H01     AOSYM     SMH    MOLCAS    OPER   

 PROGRAMS   *        TOTAL       INT
 CPU TIMES  *         0.38      0.20
 REAL TIME  *         0.46 SEC
 DISK USED  *        28.83 MB (local),      197.00 MB (total)
 GA USED    *         0.00 MB       (max)       0.00 MB       (current)
 **********************************************************************************************************************************


 Program * Restricted Hartree-Fock

 Orbital guess generated from atomic densities.

 Initial occupancy:   1   0   0   0   0   0   0

 NELEC=    2   SYM=1   MS2= 0   THRE=1.0D-08   THRD=3.2D-06   THRG=3.2D-06  HFMA2=F  DIIS_START=2   DIIS_MAX=10   DIIS_INCORE=F

 Level shifts:    0.00 (CLOSED)    0.00 (OPEN)    0.30 (GAP_MIN)

 ITER           ETOT              DE          GRAD        DDIFF     DIIS  NEXP   TIME(IT)  TIME(TOT)  DIAG
   1       -1.13117740      -1.13117740     0.00D+00     0.91D-01     0     0       0.00      0.01    start
   2       -1.13243334      -0.00125594     0.15D-01     0.72D-02     1     0       0.00      0.01    diag
   3       -1.13247594      -0.00004260     0.23D-02     0.20D-02     2     0       0.00      0.01    diag
   4       -1.13247637      -0.00000043     0.26D-03     0.29D-03     3     0       0.00      0.01    diag
   5       -1.13247637      -0.00000000     0.43D-05     0.11D-05     4     0       0.00      0.01    diag
   6       -1.13247637      -0.00000000     0.22D-06     0.18D-06     5     0       0.00      0.01    diag
   7       -1.13247637      -0.00000000     0.28D-09     0.17D-09     0     0       0.00      0.01    diag

 Final occupancy:   1   0   0   0   0   0   0

 !RHF STATE 1.1 Energy                 -1.132476370060
  RHF One-electron energy              -2.505732563018
  RHF Two-electron energy               0.658151853901
  RHF Kinetic energy                    1.123156558102
  RHF Nuclear energy                    0.715104339058
  RHF Virial quotient                  -1.008297874317

 !RHF STATE 1.1 Dipole moment           0.00000000     0.00000000     0.00000000
 Dipole moment /Debye                   0.00000000     0.00000000     0.00000000

 Orbital energies:

           1.1          2.1          3.1
     -0.594714     0.306775     1.818243

           1.2
      1.332489

           1.3
      1.332489

           1.5          2.5
      0.166391     0.644375

           1.6
      2.098612

           1.7
      2.098612


 HOMO      1.1    -0.594714 =     -16.1830eV
 LUMO      1.5     0.166391 =       4.5277eV
 LUMO-HOMO         0.761105 =      20.7107eV

 Orbitals saved in record  2100.2


 **********************************************************************************************************************************
 DATASETS  * FILE   NREC   LENGTH (MB)   RECORD NAMES
              1      18       28.56       500      610      700      900      950      970     1000      129      960     1100   
                                          VAR    BASINP    GEOM    SYMINP    ZMAT    AOBASIS   BASIS     P2S    ABASIS      S 
                                         1400     1410     1200     1210     1080     1600     1650     1700   
                                           T        V       H0       H01     AOSYM     SMH    MOLCAS    OPER   

              2       4        0.36       700     1000      520     2100   
                                         GEOM     BASIS   MCVARS     RHF  

 PROGRAMS   *        TOTAL    HF-SCF       INT
 CPU TIMES  *         0.39      0.01      0.20
 REAL TIME  *         0.47 SEC
 DISK USED  *        28.96 MB (local),      197.80 MB (total)
 GA USED    *         0.00 MB       (max)       0.00 MB       (current)
 **********************************************************************************************************************************


 PROGRAM * FCI (Full CI)     Author: P.J. Knowles, 1984


 Molecular orbitals read from record     2100.2  Type=RHF/CANONICAL  

 Frozen orbitals:              0 (  0  0  0  0  0  0  0  0)
 Active orbitals:             12 (  4  1  1  0  4  1  1  0)
 Active electrons:             2
 Spin quantum number:          0.0
 Orbital pairs:                    24       8       8       2      18       8       8       2
 Strings:                           4       1       1       0       4       1       1       0
                                    4       1       1       0       4       1       1       0
 Determinants:                             36              16              16               4
                                           36              16              16               4

 Load integrals                0.8 sec
 Transform integrals           0.8 sec
 Storage for integrals:           1464
 Remaining memory:            99998080

 Core energy:               0.71510434
 Run Hamiltonian processor DAVIDSON
 Symmetry:                   1
 Trial vector:                  0.00
 Result vector:                 0.00
 Maximum iterations:           90
 Convergence threshold:         0.0000100
 RHS vector:                    0.00
 Hamiltonian shift:             0.0000000
 Output threshold:              0.0500000
 Options:                        0
 Number of roots:             1

 Hamiltonian diagonaliser entered at time      0.85

 Initial configuration generated:
       1      1.0000000     -1.1324764

 It  Tr    CPU  Convergence   Energy       Pop     dE(next)

  1   1    0.8  1.00000000    -1.13247637
                                           0.31 -0.03664594 -0.02951329
  2   1    0.8  0.11733464    -1.16157881
                                           0.39 -0.00657896 -0.00607516
  3   1    0.9  0.03950448    -1.16758094
                                           0.42 -0.00069497 -0.00065262
  4   1    0.9  0.01841954    -1.16827843
                                           0.31 -0.00005200 -0.00004460
  5   1    0.9  0.00438471    -1.16832387
                                           0.39 -0.00000836 -0.00000790
  6   1    0.9  0.00235656    -1.16833150
                                           0.25 -0.00000063 -0.00000048
  7   1    0.9  0.00046880    -1.16833204
                                           0.39 -0.00000009 -0.00000007
  8   1    0.9  0.00022772    -1.16833211
                                           0.39 -0.00000002 -0.00000001
  9   1    0.9  0.00007408    -1.16833213
                                           0.28 -0.00000000 -0.00000000
 10   1    0.9  0.00002701    -1.16833213
                                           0.39 -0.00000000 -0.00000000
 11   1    0.9  0.00001440    -1.16833213
                                           0.22 -0.00000000 -0.00000000
 12   1    0.9  0.00000374    -1.16833213


RESULTS FOR STATE  1.1
=====================

 Correlation energy                    -0.035855758923
 !FCI STATE 1.1 Energy                 -1.168332128983
 CI Vector (threshold= 0.500E-01)
       0.991597857331  1  1
      -0.057134628834  8  8
 /EOF
 !FCI STATE 1.1 Dipole moment           0.00000000     0.00000000     0.00000000
 Dipole moment /Debye                   0.00000000     0.00000000     0.00000000


 **********************************************************************************************************************************
 DATASETS  * FILE   NREC   LENGTH (MB)   RECORD NAMES
              1      18       28.56       500      610      700      900      950      970     1000      129      960     1100   
                                          VAR    BASINP    GEOM    SYMINP    ZMAT    AOBASIS   BASIS     P2S    ABASIS      S 
                                         1400     1410     1200     1210     1080     1600     1650     1700   
                                           T        V       H0       H01     AOSYM     SMH    MOLCAS    OPER   

              2       4        0.36       700     1000      520     2100   
                                         GEOM     BASIS   MCVARS     RHF  

 PROGRAMS   *        TOTAL       FCI    HF-SCF       INT
 CPU TIMES  *         0.42      0.02      0.01      0.20
 REAL TIME  *         0.50 SEC
 DISK USED  *        28.96 MB (local),      197.80 MB (total)
 SF USED    *         0.01 MB
 GA USED    *         0.00 MB       (max)       0.00 MB       (current)
 **********************************************************************************************************************************

 FCI/6-311G(D,P) energy=     -1.168332128983

             FCI          HF-SCF
     -1.16833213     -1.13247637
 **********************************************************************************************************************************
 Molpro calculation terminated
