
 Working directory              : /tmp/lme/molpro.DL1L4fOf7d/
 Global scratch directory       : /tmp/lme/molpro.DL1L4fOf7d/
 Wavefunction directory         : /home/lme/wfu/
 Main file repository           : /tmp/lme/molpro.DL1L4fOf7d/

 id        : liedlgroup

 Nodes     nprocs
 sv1-c724     1
 GA implementation: MPI file
 GA implementation (serial work in mppx): MPI file

 Using customized tuning parameters: mindgm=1; mindgv=20; mindgc=4; mindgr=1; noblas=0; minvec=7
 default implementation of scratch files=df  


 Variables initialized (1025), CPU time= 0.01 sec
 memory,100,m
 orient,mass
 geometry = {
 H, 0.0, 0.0, -0.37
 H, 0.0, 0.0, 0.37
 }
 mass,iso
 basis=6-311g(d,p)
 {hf
 start,atden}
 
 optg
 {frequencies, symm=auto,print=0,analytical}
 put,molden,h2.molden
 Commands initialized (840), CPU time= 0.00 sec, 684 directives.
 Default parameters read. Elapsed time= 0.07 sec

 Checking input...
 Passed
1


                                         ***  PROGRAM SYSTEM MOLPRO  ***
                                       Copyright, TTI GmbH Stuttgart, 2015
                                    Version 2022.3 linked Wed Nov 30 12:40:34 2022


 **********************************************************************************************************************************
 LABEL *                                                                                 
  (6 PROC) 64 bit serial version                                                         DATE: 16-Jul-25          TIME: 10:26:06  
 **********************************************************************************************************************************

 SHA1:             e31ec9a5ea85254ab76f59d122cbdd51c71cf98b
 **********************************************************************************************************************************

 Memory per process:       100 MW
 Total memory per node:    100 MW

 GA preallocation disabled
 GA check disabled

 Variable memory set to 100.0 MW

 ZCENTRE=MASS


 Geometry recognized as XYZ



 Using masses of most abundant isotopes

 **********************************************************************************************************************************
 SETTING BASIS          =    6-311G(D,P)


 Recomputing integrals since basis changed


 Using spherical harmonics

 Library entry H      S 6-311G               selected for orbital group  1
 Library entry H      P 6-311G**             selected for orbital group  1


 PROGRAM * SEWARD (Integral evaluation for generally contracted gaussian basis sets)     Author: Roland Lindh, 1990

 Geometry written to block  1 of record 700

 Orientation using atomic masses  
 Molecule type: Linear
 Symmetry elements: X,Y,Z
 Rotational constants:    1831.4649772   1831.4649772      0.0000000 GHz

 Point group  D2h 



 ATOMIC COORDINATES

 NR  ATOM    CHARGE       X              Y              Z

   1  H       1.00    0.000000000    0.000000000   -0.699198666
   2  H       1.00    0.000000000    0.000000000    0.699198666

 Bond lengths in Bohr (Angstrom)

 1-2  1.398397332
     ( 0.740000000)

 NUCLEAR CHARGE:                    2
 NUMBER OF PRIMITIVE AOS:          16
 NUMBER OF SYMMETRY AOS:           16
 NUMBER OF CONTRACTIONS:           12   (    4Ag  +    1B3u +    1B2u +    0B1g +    4B1u +    1B2g +    1B3g +    0Au  )
 NUMBER OF INNER CORE ORBITALS:     0   (    0Ag  +    0B3u +    0B2u +    0B1g +    0B1u +    0B2g +    0B3g +    0Au  )
 NUMBER OF OUTER CORE ORBITALS:     0   (    0Ag  +    0B3u +    0B2u +    0B1g +    0B1u +    0B2g +    0B3g +    0Au  )
 NUMBER OF VALENCE ORBITALS:        2   (    1Ag  +    0B3u +    0B2u +    0B1g +    1B1u +    0B2g +    0B3g +    0Au  )


 NUCLEAR REPULSION ENERGY    0.71510434

 Eigenvalues of metric

         1 0.140E+00 0.578E+00 0.137E+01 0.404E+01
         2 0.148E+01
         3 0.148E+01
         5 0.164E-01 0.756E-01 0.251E+00 0.153E+01
         6 0.520E+00
         7 0.520E+00


 Contracted 2-electron integrals neglected if value below      1.0D-11
 AO integral compression algorithm  1   Integral accuracy      1.0D-11

     0.262 MB (compressed) written to integral file (100.0%)


 NUMBER OF SORTED TWO-ELECTRON INTEGRALS:        771.     BUFFER LENGTH:  32768
 NUMBER OF SEGMENTS:   1  SEGMENT LENGTH:        771      RECORD LENGTH: 524288

 Memory used in sort:       0.56 MW

 SORT1 READ        1800. AND WROTE         771. INTEGRALS IN      1 RECORDS. CPU TIME:     0.00 SEC, REAL TIME:     0.00 SEC
 SORT2 READ         771. AND WROTE         771. INTEGRALS IN      1 RECORDS. CPU TIME:     0.00 SEC, REAL TIME:     0.00 SEC

 FILE SIZES:   FILE 1:    30.2 MBYTE,  FILE 4:     4.2 MBYTE,   TOTAL:     34.4 MBYTE

 OPERATOR DM      FOR CENTER  0  COORDINATES:    0.000000    0.000000    0.000000


 **********************************************************************************************************************************
 DATASETS  * FILE   NREC   LENGTH (MB)   RECORD NAMES
              1      19       28.57       500      610      700      900      950      970     1000      129      960     1100   
                                          VAR    BASINP    GEOM    SYMINP    ZMAT    AOBASIS   BASIS     P2S    ABASIS      S 
                                         1400     1410     1200     1210     1080     1600     1650     1300     1700   
                                           T        V       H0       H01     AOSYM     SMH    MOLCAS    ERIS     OPER   

 PROGRAMS   *        TOTAL       INT
 CPU TIMES  *         0.23      0.13
 REAL TIME  *         0.32 SEC
 DISK USED  *        33.11 MB
 **********************************************************************************************************************************


 Program * Restricted Hartree-Fock

 Orbital guess generated from atomic densities.

 Initial occupancy:   1   0   0   0   0   0   0

 NELEC=    2   SYM=1   MS2= 0   THRE=1.0D-08   THRD=1.0D-06   THRG=1.0D-06  HFMA2=F  DIIS_START=2   DIIS_MAX=10   DIIS_INCORE=F

 Level shifts:    0.00 (CLOSED)    0.00 (OPEN)    0.30 (GAP_MIN)

 ITER           ETOT              DE          GRAD        DDIFF     DIIS  NEXP   TIME(IT)  TIME(TOT)  DIAG
   1       -1.13117740      -1.13117740     0.00D+00     0.91D-01     0     0       0.00      0.01    start
   2       -1.13243334      -0.00125594     0.15D-01     0.72D-02     1     0       0.00      0.01    diag
   3       -1.13247594      -0.00004260     0.23D-02     0.20D-02     2     0       0.00      0.01    diag
   4       -1.13247637      -0.00000043     0.26D-03     0.29D-03     3     0       0.00      0.01    diag
   5       -1.13247637      -0.00000000     0.43D-05     0.11D-05     4     0       0.00      0.01    diag
   6       -1.13247637      -0.00000000     0.22D-06     0.18D-06     5     0       0.00      0.01    diag
   7       -1.13247637       0.00000000     0.28D-09     0.17D-09     0     0       0.00      0.01    diag

 Final occupancy:   1   0   0   0   0   0   0

 !RHF STATE 1.1 Energy                 -1.132476370060
  RHF One-electron energy              -2.505732563018
  RHF Two-electron energy               0.658151853901
  RHF Kinetic energy                    1.123156558102
  RHF Nuclear energy                    0.715104339058
  RHF Virial quotient                  -1.008297874317

 !RHF STATE 1.1 Dipole moment           0.00000000     0.00000000     0.00000000
 Dipole moment /Debye                   0.00000000     0.00000000     0.00000000

 Orbital energies:

           1.1          2.1          3.1
     -0.594714     0.306775     1.818243

           1.2
      1.332489

           1.3
      1.332489

           1.5          2.5
      0.166391     0.644375

           1.6
      2.098612

           1.7
      2.098612


 HOMO      1.1    -0.594714 =     -16.1830eV
 LUMO      1.5     0.166391 =       4.5277eV
 LUMO-HOMO         0.761105 =      20.7107eV

 Orbitals saved in record  2100.2


 **********************************************************************************************************************************
 DATASETS  * FILE   NREC   LENGTH (MB)   RECORD NAMES
              1      19       28.57       500      610      700      900      950      970     1000      129      960     1100   
                                          VAR    BASINP    GEOM    SYMINP    ZMAT    AOBASIS   BASIS     P2S    ABASIS      S 
                                         1400     1410     1200     1210     1080     1600     1650     1300     1700   
                                           T        V       H0       H01     AOSYM     SMH    MOLCAS    ERIS     OPER   

              2       4        0.36       700     1000      520     2100   
                                         GEOM     BASIS   MCVARS     RHF  

 PROGRAMS   *        TOTAL    HF-SCF       INT
 CPU TIMES  *         0.24      0.01      0.13
 REAL TIME  *         0.34 SEC
 DISK USED  *        33.11 MB
 **********************************************************************************************************************************


 PROGRAM * OPT (Geometry optimization)     Authors: F. Eckert and H.-J. Werner


 BFGS update of hessian

 *** Long output written to logfile /home/lme/overlap_integral_gaussian/molpro_files/h2.log ***


 Geometry optimization using default procedure for command HF-SCF

 Geometry written to block  1 of record 700

 Entering BMAT geometry-optimization, modelhes=F
 Optimization method: RF

 ITER.   ENERGY(OLD)    ENERGY(NEW)      DE          GRADMAX     GRADNORM    GRADRMS     STEPMAX     STEPLEN     STEPRMS   CPU-time
   1    -1.13247637    -1.13249009    -0.00001372  0.00338932  0.00479323  0.00195683  0.00527665  0.00746231  0.00527665      0.07
   2    -1.13249009    -1.13249091    -0.00000082  0.00081315  0.00114997  0.00046947  0.00102099  0.00144390  0.00102099      0.14
   3    -1.13249091    -1.13249091    -0.00000000  0.00001150  0.00001626  0.00000664  0.00001424  0.00002014  0.00001424      0.21

 END OF GEOMETRY OPTIMIZATION.

 Geometry written to block  1 of record 700

 Recomputing wavefunction for reoriented structure

 Current geometry (xyz format, in Angstrom)

    2
 HF-SCF000/6-311G(D,P)  ENERGY=-1.13249091
 H          0.0000000000        0.0000000000       -0.3677404683
 H          0.0000000000        0.0000000000        0.3677404683

 **********************************************************************************************************************************


 **********************************************************************************************************************************
 DATASETS  * FILE   NREC   LENGTH (MB)   RECORD NAMES
              1      19       28.57       500      610      700      900      950      970     1000      129      960     1100   
                                          VAR    BASINP    GEOM    SYMINP    ZMAT    AOBASIS   BASIS     P2S    ABASIS      S 
                                         1400     1410     1200     1210     1080     1600     1650     1300     1700   
                                           T        V       H0       H01     AOSYM     SMH    MOLCAS    ERIS     OPER   

              2       4        0.36       700     1000      520     2100   
                                         GEOM     BASIS   MCVARS     RHF  

 PROGRAMS   *        TOTAL      OPTG    HF-SCF       INT
 CPU TIMES  *         0.45      0.21      0.01      0.13
 REAL TIME  *         0.57 SEC
 DISK USED  *        33.44 MB
 **********************************************************************************************************************************


 PROGRAM * HESSIAN

 PROGRAM * MCKINLEY (Hessian of the energy)     Author: A. Bernhardsson, R. Lindh

 Orbitals from record         2100.2

 Number of closed-shell orbitals:  1 (  1  0  0  0  0  0  0 )
 Number of occupied orbitals:      1 (  1  0  0  0  0  0  0 )

 Number of electrons=  2     Singlet     Space symmetry=1      Wavefunction type: CLOSED          


 McKinley needed      0.01 seconds of CPU time

 Entering CPHF calculation

 CPHF needed  11 iterations for  6 perturbations.  Total CPU time:    0.00 sec


 HF-SCF hessian saved to record  5300.2

 PROGRAM * FREQUENCIES (Calculation of harmonic vibrational spectra for HF-SCF)


 Permanent Dipole Moment [debye]
 1-3    0.000000    0.000000    0.000000

 Dipole Moment Norm    0.0000000 [debye]

 Dipole Moment Derivatives [debye/ang]
              1             2             3             4             5             6
    1    0.00000000    0.00000000    0.00000000    0.00000000    0.00000000    0.00000000
    2    0.00000000    0.00000000    0.00000000    0.00000000    0.00000000    0.00000000
    3    0.00000000    0.00000000    0.00000000    0.00000000    0.00000000    0.00000000

 Projecting out rotations and translations

 Force Constants (Second Derivatives of the Energy) in [a.u.]
                             HX1         HY1         HZ1         HX2         HY2     
           HX1           0.0000000
           HY1           0.0000000   0.0000000
           HZ1           0.0000000   0.0000000   0.4025203
           HX2          -0.0000000   0.0000000   0.0000000   0.0000000
           HY2           0.0000000  -0.0000000   0.0000000   0.0000000   0.0000000
           HZ2           0.0000000   0.0000000  -0.4025203   0.0000000   0.0000000
                             HZ2     
           HZ2           0.4025203


 Atomic Masses
 1-2    1.007825    1.007825

 Mass weighted Second Derivative Matrix
                             HX1         HY1         HZ1         HX2         HY2     
           HX1           0.0000000
           HY1           0.0000000   0.0000000
           HZ1           0.0000000   0.0000000   0.3993951
           HX2          -0.0000000   0.0000000   0.0000000   0.0000000
           HY2           0.0000000  -0.0000000   0.0000000   0.0000000   0.0000000
           HZ2           0.0000000   0.0000000  -0.3993951   0.0000000   0.0000000
                             HZ2     
           HZ2           0.3993951


 Mass Weighted 2nd Derivative Matrix Eigenvalues
 1-6    0.000000    0.000000    0.000000    0.000000    0.000000    0.798790

 Mass Weighted 2nd Derivative Matrix Eigenvectors
              1             2             3             4             5             6
    1    0.00000000    0.00000000    0.70710678    0.00000000    0.70710678    0.00000000
    2    0.70710678    0.00000000    0.00000000    0.70710678    0.00000000    0.00000000
    3    0.00000000    0.70710678    0.00000000    0.00000000    0.00000000    0.70710678
    4    0.00000000    0.00000000    0.70710678    0.00000000   -0.70710678    0.00000000
    5    0.70710678    0.00000000    0.00000000   -0.70710678    0.00000000    0.00000000
    6    0.00000000    0.70710678    0.00000000    0.00000000    0.00000000   -0.70710678

   Low Vibration      Wavenumber
        Nr             [1/cm] 
        1                0.00
        2                0.00
        3                0.00
        4                0.00
        5                0.00

     Vibration        Wavenumber
        Nr             [1/cm] 
        1             4594.31

 FREQUENCIES * CALCULATION OF NORMAL MODES FOR HF-SCF


 Atomic Coordinates

  Nr  Atom  Charge       X              Y              Z

   1   H     1.00    0.000000000    0.000000000   -0.694928770
   2   H     1.00    0.000000000    0.000000000    0.694928770

 Gradient norm at reference geometry: 0.16264D-04

 Normal Modes

                              1 Ag 
 Wavenumbers [cm-1]         4594.31
 Intensities [km/mol]          0.00
 Intensities [relative]        0.00
           HX1             -0.00000
           HY1             -0.00000
           HZ1              0.70436
           HX2             -0.00000
           HY2             -0.00000
           HZ2             -0.70436


 Normal Modes of low/zero frequencies

                                  1           2           3           4           5
 Wavenumbers [cm-1]            0.00        0.00        0.00        0.00        0.00
 Intensities [km/mol]          0.00        0.00        0.00        0.00        0.00
 Intensities [relative]        0.00        0.00        0.00        0.00        0.00
           HX1              0.00000     0.00000     0.70436    -0.00000     0.70436
           HY1              0.70436     0.00000    -0.00000     0.70436     0.00000
           HZ1             -0.00000     0.70436    -0.00000     0.00000    -0.00000
           HX2              0.00000    -0.00000     0.70436     0.00000    -0.70436
           HY2              0.70436    -0.00000    -0.00000    -0.70436    -0.00000
           HZ2             -0.00000     0.70436    -0.00000     0.00000    -0.00000


 Frequencies dumped to record   5400.2

 Zero point energy:  0.01046662 [H]     2297.16 [1/CM]       27.48 [KJ/MOL]
 Frequency information read from record  5400.2


 **********************************************************************************************************************************
 DATASETS  * FILE   NREC   LENGTH (MB)   RECORD NAMES
              1      19       28.57       500      610      700      900      950      970     1000      129      960     1100   
                                          VAR    BASINP    GEOM    SYMINP    ZMAT    AOBASIS   BASIS     P2S    ABASIS      S 
                                         1400     1410     1200     1210     1080     1600     1650     1300     1700   
                                           T        V       H0       H01     AOSYM     SMH    MOLCAS    ERIS     OPER   

              2       7        0.36       700     1000      520     2100     5300     5450     5400   
                                         GEOM     BASIS   MCVARS     RHF     HESS     NMOD     FREQ   

              4       5        0.05      4100     4000     4200     4300     4400   

 PROGRAMS   *        TOTAL      FREQ      OPTG    HF-SCF       INT
 CPU TIMES  *         0.47      0.01      0.21      0.01      0.13
 REAL TIME  *         0.60 SEC
 DISK USED  *        33.44 MB
 **********************************************************************************************************************************

 Dump information in style MOLDEN to h2.molden                                                                       

 Molecular orbitals read from record     2100.2  Type=RHF/CANONICAL  
 Occupation numbers read from record     2100.2  Type=RHF/RHF  
 Orbital energies read from record       2100.2  Type=RHF/CANONICAL  
 Redundancy group numbers read from rec  2100.2  Type=RHF/RHF  

 DUMP ORBITAL  1.1 AS ORBITAL    1  occ=    2.0000  eig=   -0.5961  GROUP=   2

 Total charge:       2.000000
 Frequency information read from record  5400.2

 **********************************************************************************************************************************

 HF/6-311G(D,P)//HF/6-311G(D,P) energy=     -1.132490910498

    OPTG(HF-SCF)          HF-SCF
     -1.13249091     -1.13247637
 **********************************************************************************************************************************
 Molpro calculation terminated
