
 Working directory              : /tmp/lme/molpro.VXFjpvsZuN/
 Global scratch directory       : /tmp/lme/molpro.VXFjpvsZuN/
 Wavefunction directory         : /home/lme/wfu/
 Main file repository           : /tmp/lme/molpro.VXFjpvsZuN/

 id        : liedlgroup

 Nodes     nprocs
 sv1-c724     1
 GA implementation: MPI file
 GA implementation (serial work in mppx): MPI file

 Using customized tuning parameters: mindgm=1; mindgv=20; mindgc=4; mindgr=1; noblas=0; minvec=7
 default implementation of scratch files=df  


 Variables initialized (1042), CPU time= 0.00 sec
 
                     orient,mass
                     geometry=initial.xyz
 Including file /home/lme/Theoretische_Chemie/Paper/Calc_Paper/h2o/H2O.molpro/run/H2O_1.molpro/initial.xyz
                     mass, iso
                     basis=6-311g(d,p)
                     {hf
                     start, atden}
                     optg;
                     {frequencies, symm=auto, print=0, analytical}
                     put, molden, H2O.molden
 Commands initialized (847), CPU time= 0.00 sec, 718 directives.
 Default parameters read. Elapsed time= 0.06 sec

 Checking input...
 Passed
1


                                         ***  PROGRAM SYSTEM MOLPRO  ***
                                       Copyright, TTI GmbH Stuttgart, 2015
                                    Version 2024.1 linked Wed Jan 31 11:42:09 2024


 **********************************************************************************************************************************
 LABEL *                                                                                                                                                                 
  (6 PROC) 64 bit serial version                                                         DATE: 17-Oct-24          TIME: 08:01:25  
 **********************************************************************************************************************************

 SHA1:             675817fde4514a4a933b69e420913a90cee4ef91
 **********************************************************************************************************************************

 Memory per process:        32 MW
 Total memory per node:     32 MW

 GA preallocation disabled
 GA check disabled

 Variable memory set to 32.0 MW

 ZCENTRE=MASS


 Geometry recognized as XYZ



 Using masses of most abundant isotopes

 **********************************************************************************************************************************
 SETTING BASIS          =    6-311G(D,P)


 Recomputing integrals since basis changed


 Using spherical harmonics

 Library entry O      S 6-311G               selected for orbital group  1
 Library entry O      P 6-311G               selected for orbital group  1
 Library entry O      D 6-311G*              selected for orbital group  1
 Library entry H      S 6-311G               selected for orbital group  2
 Library entry H      P 6-311G**             selected for orbital group  2


 PROGRAM * SEWARD (Integral evaluation for generally contracted gaussian basis sets)     Author: Roland Lindh, 1990

 Geometry written to block  1 of record 700

 Orientation using atomic masses  
 Molecule type: Asymmetric top,     Order of principal axis = 2
 Symmetry elements: X,Y
 Rotational constants:     279.1062407    793.9712080    430.4086180 GHz

 Point group  C2v 



 ATOMIC COORDINATES

 NR  ATOM    CHARGE       X              Y              Z

   1  O       8.00    0.000000000    0.000000000    0.126112501
   2  H       1.00    0.000000000    1.442312678   -1.000748195
   3  H       1.00    0.000000000   -1.442312678   -1.000748195

 Bond lengths in Bohr (Angstrom)

 1-2  1.830322618  1-3  1.830322618
     ( 0.968565018)     ( 0.968565018)

 Bond angles

  2-1-3  103.99987510

 NUCLEAR CHARGE:                   10
 NUMBER OF PRIMITIVE AOS:          48
 NUMBER OF SYMMETRY AOS:           47
 NUMBER OF CONTRACTIONS:           30   (   14A1  +    5B1  +    9B2  +    2A2  )
 NUMBER OF INNER CORE ORBITALS:     0   (    0A1  +    0B1  +    0B2  +    0A2  )
 NUMBER OF OUTER CORE ORBITALS:     1   (    1A1  +    0B1  +    0B2  +    0A2  )
 NUMBER OF VALENCE ORBITALS:        6   (    3A1  +    1B1  +    2B2  +    0A2  )


 NUCLEAR REPULSION ENERGY    9.08829377

 Eigenvalues of metric

         1 0.186E-01 0.903E-01 0.114E+00 0.149E+00 0.293E+00 0.449E+00 0.607E+00 0.825E+00
         2 0.215E+00 0.461E+00 0.909E+00 0.119E+01 0.227E+01
         3 0.424E-01 0.995E-01 0.128E+00 0.396E+00 0.560E+00 0.848E+00 0.123E+01 0.155E+01
         4 0.660E+00 0.130E+01


 Contracted 2-electron integrals neglected if value below      1.0D-11
 AO integral compression algorithm  1   Integral accuracy      1.0D-11

     0.524 MB (compressed) written to integral file ( 74.2%)


 NUMBER OF SORTED TWO-ELECTRON INTEGRALS:      32916.     BUFFER LENGTH:  32768
 NUMBER OF SEGMENTS:   1  SEGMENT LENGTH:      32916      RECORD LENGTH: 524288

 Memory used in sort:       0.59 MW

 SORT1 READ       47172. AND WROTE       30106. INTEGRALS IN      1 RECORDS. CPU TIME:     0.00 SEC, REAL TIME:     0.01 SEC
 SORT2 READ       30106. AND WROTE       32916. INTEGRALS IN      2 RECORDS. CPU TIME:     0.01 SEC, REAL TIME:     0.00 SEC

 FILE SIZES:   FILE 1:    30.6 MBYTE,  FILE 4:     4.3 MBYTE,   TOTAL:     34.8 MBYTE

 OPERATOR DM      FOR CENTER  0  COORDINATES:    0.000000    0.000000    0.000000


 **********************************************************************************************************************************
 DATASETS  * FILE   NREC   LENGTH (MB)   RECORD NAMES
              1      19       28.81       500      610      700      900      950      970     1000      129      960     1100   
                                          VAR    BASINP    GEOM    SYMINP    ZMAT    AOBASIS   BASIS     P2S    ABASIS      S 
                                         1400     1410     1200     1210     1080     1600     1650     1300     1700   
                                           T        V       H0       H01     AOSYM     SMH    MOLCAS    ERIS     OPER   

 PROGRAMS   *        TOTAL       INT
 CPU TIMES  *         0.22      0.11
 REAL TIME  *         0.30 SEC
 DISK USED  *        33.55 MB
 **********************************************************************************************************************************


 Program * Restricted Hartree-Fock

 Orbital guess generated from atomic densities.

 Initial occupancy:   3   1   1   0

 NELEC=   10   SYM=1   MS2= 0   THRE=1.0D-08   THRD=1.0D-06   THRG=1.0D-06  HFMA2=F  DIIS_START=2   DIIS_MAX=10   DIIS_INCORE=F

 Level shifts:    0.00 (CLOSED)    0.00 (OPEN)    0.30 (GAP_MIN)

 ITER           ETOT              DE          GRAD        DDIFF     DIIS  NEXP   TIME(IT)  TIME(TOT)  DIAG
   1      -76.00571085     -76.00571085     0.00D+00     0.15D+00     0     0       0.00      0.01    start
   2      -76.03560664      -0.02989579     0.33D-01     0.24D-01     1     0       0.00      0.01    diag
   3      -76.04518849      -0.00958185     0.19D-01     0.82D-02     2     0       0.00      0.01    diag
   4      -76.04540553      -0.00021704     0.19D-02     0.15D-02     3     0       0.00      0.01    diag
   5      -76.04542725      -0.00002172     0.54D-03     0.63D-03     4     0       0.00      0.01    diag
   6      -76.04542798      -0.00000073     0.87D-04     0.11D-03     5     0       0.00      0.01    diag
   7      -76.04542800      -0.00000002     0.15D-04     0.19D-04     6     0       0.00      0.01    diag
   8      -76.04542801      -0.00000000     0.17D-05     0.24D-05     7     0       0.00      0.01    fixocc
   9      -76.04542801      -0.00000000     0.17D-06     0.29D-06     8     0       0.00      0.01    diag
  10      -76.04542801      -0.00000000     0.33D-07     0.26D-07     0     0       0.00      0.01    diag/orth

 Final occupancy:   3   1   1   0

 !RHF STATE 1.1 Energy                -76.045428005009
  RHF One-electron energy            -122.962263114568
  RHF Two-electron energy              37.828541340711
  RHF Kinetic energy                   76.016193320570
  RHF Nuclear energy                    9.088293768847
  RHF Virial quotient                  -1.000384584957

 !RHF STATE 1.1 Dipole moment           0.00000000     0.00000000    -0.85901492
 Dipole moment /Debye                   0.00000000     0.00000000    -2.18339815

 Orbital energies:

           1.1          2.1          3.1          4.1          5.1
    -20.547241    -1.336009    -0.570789     0.148676     0.608226

           1.2          2.2          3.2
     -0.499136     1.003921     1.711432

           1.3          2.3          3.3
     -0.699415     0.215806     0.560116

           1.4          2.4
      1.514010     3.538337


 HOMO      1.2    -0.499136 =     -13.5822eV
 LUMO      4.1     0.148676 =       4.0457eV
 LUMO-HOMO         0.647812 =      17.6279eV

 Orbitals saved in record  2100.2


 **********************************************************************************************************************************
 DATASETS  * FILE   NREC   LENGTH (MB)   RECORD NAMES
              1      19       28.81       500      610      700      900      950      970     1000      129      960     1100   
                                          VAR    BASINP    GEOM    SYMINP    ZMAT    AOBASIS   BASIS     P2S    ABASIS      S 
                                         1400     1410     1200     1210     1080     1600     1650     1300     1700   
                                           T        V       H0       H01     AOSYM     SMH    MOLCAS    ERIS     OPER   

              2       4        0.41       700     1000      520     2100   
                                         GEOM     BASIS   MCVARS     RHF  

 PROGRAMS   *        TOTAL    HF-SCF       INT
 CPU TIMES  *         0.23      0.01      0.11
 REAL TIME  *         0.32 SEC
 DISK USED  *        33.55 MB
 **********************************************************************************************************************************


 PROGRAM * OPT (Geometry optimization)     Authors: F. Eckert and H.-J. Werner


 BFGS update of hessian

 *** Long output written to logfile /home/lme/Theoretische_Chemie/Paper/Calc_Paper/h2o/H2O.molpro/run/H2O_1.molpro/H2O_1.log ***


 Geometry optimization using default procedure for command HF-SCF

 Geometry written to block  1 of record 700

 PQS Optimization using delocalized internal coordinates

 Point group c2v. Number of degrees of freedom:    2

 ITER.   ENERGY(OLD)    ENERGY(NEW)      DE          GRADMAX     GRADNORM    GRADRMS     STEPMAX     STEPLEN     STEPRMS   CPU-time
   1   -76.04542801   -76.04698480    -0.00155680  0.03367234  0.04116738  0.02910973  0.06619914  0.07674462  0.05426664      0.07
   2   -76.04698480   -76.04701179    -0.00002698  0.00372972  0.00373249  0.00263927  0.01566580  0.01820030  0.01286955      0.14
   3   -76.04701179   -76.04701203    -0.00000024  0.00034303  0.00034400  0.00024325  0.00133354  0.00156876  0.00110928      0.21
   4   -76.04701203   -76.04701203    -0.00000000  0.00000329  0.00000331  0.00000234  0.00001162  0.00001290  0.00000912      0.28

 END OF GEOMETRY OPTIMIZATION.

 Geometry written to block  1 of record 700

 Recomputing wavefunction for reoriented structure

 Current geometry (xyz format, in Angstrom)

    3
 HF-SCF000/6-311G(D,P)  ENERGY=-76.04701203
 O          0.0000000000        0.0000000000        0.0637711793
 H          0.0000000000        0.7488258450       -0.5060473165
 H          0.0000000000       -0.7488258450       -0.5060473165

 **********************************************************************************************************************************


 **********************************************************************************************************************************
 DATASETS  * FILE   NREC   LENGTH (MB)   RECORD NAMES
              1      19       28.81       500      610      700      900      950      970     1000      129      960     1100   
                                          VAR    BASINP    GEOM    SYMINP    ZMAT    AOBASIS   BASIS     P2S    ABASIS      S 
                                         1400     1410     1200     1210     1080     1600     1650     1300     1700   
                                           T        V       H0       H01     AOSYM     SMH    MOLCAS    ERIS     OPER   

              2       4        0.41       700     1000      520     2100   
                                         GEOM     BASIS   MCVARS     RHF  

 PROGRAMS   *        TOTAL      OPTG    HF-SCF       INT
 CPU TIMES  *         0.55      0.32      0.01      0.11
 REAL TIME  *         0.78 SEC
 DISK USED  *        33.90 MB
 **********************************************************************************************************************************


 PROGRAM * HESSIAN

 PROGRAM * MCKINLEY (Hessian of the energy)     Author: A. Bernhardsson, R. Lindh

 Orbitals from record         2100.2

 Number of closed-shell orbitals:  5 (  3  1  1  0 )
 Number of occupied orbitals:      5 (  3  1  1  0 )

 Number of electrons= 10     Singlet     Space symmetry=1      Wavefunction type: CLOSED          


 McKinley needed      0.10 seconds of CPU time

 Entering CPHF calculation

 CPHF needed  64 iterations for  9 perturbations.  Total CPU time:    0.02 sec


 HF-SCF hessian saved to record  5300.2

 PROGRAM * FREQUENCIES (Calculation of harmonic vibrational spectra for HF-SCF)


 Permanent Dipole Moment [debye]
     1-   3    0.000000    0.000000    0.000000

 Dipole Moment Norm    0.0000000 [debye]

 Dipole Moment Derivatives [debye/ang]
              1             2             3             4             5             6             7             8
    1    0.00000000    0.00000000    0.00000000    0.00000000    0.00000000    0.00000000    0.00000000    0.00000000
    2    0.00000000    0.00000000    0.00000000    0.00000000    0.00000000    0.00000000    0.00000000    0.00000000
    3    0.00000000    0.00000000    0.00000000    0.00000000    0.00000000    0.00000000    0.00000000    0.00000000
              9
    1    0.00000000
    2    0.00000000
    3    0.00000000

 Projecting out rotations and translations

 Force Constants (Second Derivatives of the Energy) in [a.u.]
                             OX1         OY1         OZ1         HX2         HY2     
           OX1          -0.0000000
           OY1           0.0000000   0.8032677
           OZ1           0.0000000  -0.0000000   0.5365844
           HX2           0.0000000   0.0000000   0.0000000  -0.0000000
           HY2           0.0000000  -0.4016338   0.2406850   0.0000000   0.4354122
           HZ2           0.0000000   0.3056230  -0.2682922   0.0000000  -0.2731540
           HX3           0.0000000   0.0000000   0.0000000  -0.0000000   0.0000000
           HY3           0.0000000  -0.4016338  -0.2406850   0.0000000  -0.0337783
           HZ3           0.0000000  -0.3056230  -0.2682922   0.0000000   0.0324690
                             HZ2         HX3         HY3         HZ3     
           HZ2           0.2504279
           HX3           0.0000000  -0.0000000
           HY3          -0.0324690   0.0000000   0.4354122
           HZ3           0.0178643   0.0000000   0.2731540   0.2504279


 Atomic Masses
     1-   3   15.994910    1.007825    1.007825

 Mass weighted Second Derivative Matrix
                             OX1         OY1         OZ1         HX2         HY2     
           OX1          -0.0000000
           OY1           0.0000000   0.0502202
           OZ1           0.0000000  -0.0000000   0.0335472
           HX2           0.0000000   0.0000000   0.0000000  -0.0000000
           HY2           0.0000000  -0.1000338   0.0599467   0.0000000   0.4320315
           HZ2           0.0000000   0.0761207  -0.0668228   0.0000000  -0.2710332
           HX3           0.0000000   0.0000000   0.0000000  -0.0000000   0.0000000
           HY3           0.0000000  -0.1000338  -0.0599467   0.0000000  -0.0335161
           HZ3           0.0000000  -0.0761207  -0.0668228   0.0000000   0.0322169
                             HZ2         HX3         HY3         HZ3     
           HZ2           0.2484835
           HX3           0.0000000  -0.0000000
           HY3          -0.0322169   0.0000000   0.4320315
           HZ3           0.0177256   0.0000000   0.2710332   0.2484835


 Mass Weighted 2nd Derivative Matrix Eigenvalues
     1-   9    0.000000    0.000000    0.000000    0.000000    0.000000    0.000000    0.116021    0.649283    0.679494

 Mass Weighted 2nd Derivative Matrix Eigenvectors
              1             2             3             4             5             6             7             8
    1    0.00000000    0.00000000    0.00000000    1.00000000    0.00000000    0.00000000    0.00000000    0.00000000
    2    0.63892732   -0.09107987    0.08451880    0.00000000    0.70622068    0.06063801    0.00000000    0.00000000
    3    0.33409399    0.75902343   -0.03016878    0.00000000   -0.23344801    0.38071198   -0.27084061    0.19636768
    4    0.45032077   -0.31470088    0.65082665    0.00000000   -0.52273387   -0.03672239    0.00000000    0.00000000
    5    0.02999574   -0.17543180    0.01538743    0.00000000    0.12252824    0.39978686    0.41506016    0.57247276
    6   -0.08748264   -0.00997148   -0.01523191    0.00000000   -0.13054166    0.60094116    0.53948841   -0.39114550
    7   -0.45031117    0.31937131    0.75343581    0.00000000    0.35532825    0.03602949    0.00000000    0.00000000
    8    0.02999574   -0.17543180    0.01538743    0.00000000    0.12252824    0.39978686   -0.41506016   -0.57247276
    9    0.25520862    0.39102576    0.00008621    0.00000000    0.01334322   -0.40981145    0.53948841   -0.39114550
              9
    1    0.00000000
    2   -0.27186079
    3    0.00000000
    4    0.00000000
    5    0.54152051
    6   -0.41206965
    7    0.00000000
    8    0.54152051
    9    0.41206965

   Low Vibration      Wavenumber
        Nr             [1/cm] 
        1                0.00
        2                0.00
        3                0.00
        4                0.00
        5                0.00
        6                0.00

     Vibration        Wavenumber
        Nr             [1/cm] 
        1             1750.94
        2             4142.11
        3             4237.38

 FREQUENCIES * CALCULATION OF NORMAL MODES FOR HF-SCF


 Atomic Coordinates

  Nr  Atom  Charge       X              Y              Z

   1   O     8.00    0.000000000    0.000000000    0.120510064
   2   H     1.00    0.000000000    1.415075762   -0.956290834
   3   H     1.00    0.000000000   -1.415075762   -0.956290834

 Gradient norm at reference geometry: 0.30009D-05

 Normal Modes

                              1 A1        2 A1        3 B2 
 Wavenumbers [cm-1]         1750.94     4142.11     4237.38
 Intensities [km/mol]          0.00        0.00        0.00
 Intensities [relative]        0.00        0.00        0.00
           OX1              0.00000    -0.00000    -0.00000
           OY1             -0.00000     0.00000    -0.06798
           OZ1             -0.06772     0.04910    -0.00000
           HX2             -0.00000     0.00000    -0.00000
           HY2              0.41345     0.57025     0.53941
           HZ2              0.53739    -0.38962    -0.41047
           HX3              0.00000    -0.00000     0.00000
           HY3             -0.41345    -0.57025     0.53941
           HZ3              0.53739    -0.38962     0.41047


 Normal Modes of low/zero frequencies

                                  1           2           3           4           5
 Wavenumbers [cm-1]            0.00        0.00        0.00        0.00        0.00
 Intensities [km/mol]          0.00        0.00        0.00        0.00        0.00
 Intensities [relative]        0.00        0.00        0.00        0.00        0.00
           OX1             -0.00000    -0.00000    -0.00000     0.25004    -0.00000
           OY1              0.15976    -0.02277     0.02113     0.00000     0.17658
           OZ1              0.08354     0.18979    -0.00754    -0.00000    -0.05837
           HX2              0.44857    -0.31348     0.64830     0.00000    -0.52070
           HY2              0.02988    -0.17475     0.01533     0.00000     0.12205
           HZ2             -0.08714    -0.00993    -0.01517    -0.00000    -0.13003
           HX3             -0.44856     0.31813     0.75051     0.00000     0.35395
           HY3              0.02988    -0.17475     0.01533     0.00000     0.12205
           HZ3              0.25422     0.38950     0.00009     0.00000     0.01329

                                  6
 Wavenumbers [cm-1]            0.00
 Intensities [km/mol]          0.00
 Intensities [relative]        0.00
           OX1             -0.00000
           OY1              0.01516
           OZ1              0.09519
           HX2             -0.03658
           HY2              0.39823
           HZ2              0.59860
           HX3              0.03589
           HY3              0.39823
           HZ3             -0.40822


 Frequencies dumped to record   5400.2
 Frequency information read from record  5400.2

 Zero point energy:  0.02307881 [H]     5065.21 [1/CM]       60.59 [KJ/MOL]


 **********************************************************************************************************************************
 DATASETS  * FILE   NREC   LENGTH (MB)   RECORD NAMES
              1      19       28.81       500      610      700      900      950      970     1000      129      960     1100   
                                          VAR    BASINP    GEOM    SYMINP    ZMAT    AOBASIS   BASIS     P2S    ABASIS      S 
                                         1400     1410     1200     1210     1080     1600     1650     1300     1700   
                                           T        V       H0       H01     AOSYM     SMH    MOLCAS    ERIS     OPER   

              2       7        0.42       700     1000      520     2100     5300     5450     5400   
                                         GEOM     BASIS   MCVARS     RHF     HESS     NMOD     FREQ   

              4       5        0.10      4100     4000     4200     4300     4400   

 PROGRAMS   *        TOTAL      FREQ      OPTG    HF-SCF       INT
 CPU TIMES  *         0.67      0.12      0.32      0.01      0.11
 REAL TIME  *         0.91 SEC
 DISK USED  *        33.90 MB
 **********************************************************************************************************************************

 Dump information in style MOLDEN to h2o.molden                                                                      

 Molecular orbitals read from record     2100.2  Type=RHF/CANONICAL  
 Occupation numbers read from record     2100.2  Type=RHF/RHF  
 Orbital energies read from record       2100.2  Type=RHF/CANONICAL  
 Redundancy group numbers read from rec  2100.2  Type=RHF/RHF  

 DUMP ORBITAL  1.1 AS ORBITAL    1  occ=    2.0000  eig=  -20.5413  GROUP=   2
 DUMP ORBITAL  2.1 AS ORBITAL    2  occ=    2.0000  eig=   -1.3491  GROUP=   2
 DUMP ORBITAL  1.3 AS ORBITAL    3  occ=    2.0000  eig=   -0.7172  GROUP=   2
 DUMP ORBITAL  3.1 AS ORBITAL    4  occ=    2.0000  eig=   -0.5729  GROUP=   2
 DUMP ORBITAL  1.2 AS ORBITAL    5  occ=    2.0000  eig=   -0.5007  GROUP=   2

 Total charge:      10.000000
 Frequency information read from record  5400.2

 **********************************************************************************************************************************

 HF/6-311G(D,P)//HF/6-311G(D,P) energy=    -76.047012027794

    OPTG(HF-SCF)          HF-SCF
    -76.04701203    -76.04542801
 **********************************************************************************************************************************
 Molpro calculation terminated
