[Molden Format]
[Molpro variables]
_NUMVAR=  1055.000000000000    
_AVOGAD= 0.6022140760000000E+24
_BOLTZ= 0.1380649000000000E-22
_CLIGHTSI=  299792458.0000000    
_JOULE= 0.4359744722207100E-17
_JPCAL=  4.184000000000000    
_PLANCK= 0.6626070150000000E-33
_BOHR= 0.5291772109030000E-10
_ECHARG= 0.1602176634000000E-18
_ENULL= 0.8854187812800001E-11
_MU= 0.1660539066600000E-26
_EMASS= 0.9109383701500001E-30
_AMU2AU=  1822.888486217313    
_CLIGHT=  29979245800.00000    
_EV= 0.3674932217565494E-01
_KJOULE= 0.3808798847133432E-03
_KJOULE/MOL= 0.3808798847133432E-03
_CM= 0.4556335252912009E-05
_CM-1= 0.4556335252912009E-05
_DEB2SI= 0.3335640951981520E-29
_KCAL= 0.1593601437640628E-02
_KCAL/MOL= 0.1593601437640628E-02
_KELVIN= 0.3166811563455608E-05
_HERTZ= 0.1519829846057038E-15
_HZ= 0.1519829846057038E-15
_TOA= 0.5291772109030000    
_TOANG= 0.5291772109030000    
_TORAD= 0.1745329251994330E-01
_TOCM=  219474.6313631965    
_TODEBYE=  2.541746473194078    
_TOE= 0.4803204712570263E-09
_TOEV=  27.21138624598803    
_TOHERTZ=  6579683920501656.    
_TOHZ=  6579683920501656.    
_TOK=  315775.0248040668    
_TOKCAL=  627.5094740630558    
_TOKELVIN=  315775.0248040668    
_TOKJ=  2625.499639479825    
_TOKJOULE=  2625.499639479825    
_TOKG= 0.1660539066600000E-26
_ANG=  1.889726124625770    
_ANGSTROM=  1.889726124625770    
_RPAREF=  0.000000000000000    
_RPADISS=  0.000000000000000    
_IGNORE_UNDEF=  2.000000000000000    
_STRICTCHECK=  0.000000000000000    
!SEWARD=  0.000000000000000    
!MULTI=  0.000000000000000    
!DFMULTI=  0.000000000000000    
_SEW_ONEEL=  0.000000000000000    
_CPPDONE=FALSE
_DKROLL_DONE=  0.000000000000000    
_FNUC_DONE=  0.000000000000000    
_FOCKDONE=TRUE
_GRADONE=FALSE
_HESSDONE=TRUE
_INTDONE=TRUE
_SCFDONE=TRUE
_MODUL_BLOCK=FALSE
_MODUL_CUDA=FALSE
_MODUL_SLATER=FALSE
_MODUL_MRCC=FALSE
_MODUL_NBO6=FALSE
_MODUL_NECI=FALSE
_MODUL_AIMS=TRUE
_MODUL_GECCO=FALSE
_ISWINDOWS=FALSE
_MRCC_EXEC=
_FITC_AO_SAVED=FALSE
_FITC_MO_SAVED=FALSE
_SHARED_FS=TRUE
_LSTYP=SEWARD
_INTYP=INTS
_GEOMTYP=ZMAT
_GRADTYP=ALASKA
_DIRECT=FALSE
_DKHO= -1.000000000000000    
_FNUC=  0.000000000000000    
_SYNCM=  0.000000000000000    
_BASIS=6-311G(D,P)
_ZCENTRE=MASS
_ZORIENT=  1.000000000000000    
_NELEC=  50.00000000000000    
!SPIN=  0.000000000000000    
_OPTCONV= 0.5511005576164210E-02
_QSDSTEP=  0.000000000000000    
_QSDIRC=  0.000000000000000    
_PROGRAM=FREQ
_CPUSTEP=  565.4000000000001    
_SYSSTEP=  5.230000000000000    
_WALLSTEP=  461.4100000000000    
!DFSCF=  0.000000000000000    
!SCSGRD=  0.000000000000000    
_CPUTOT=  1197.210000000000    
_DFTEXFAC=  1.000000000000000    
_DMX=-0.7781335510458973E-01
_DMY=  1.242806280109152    
_DMZ= 0.1315619817682783    
_DMX_SCF=-0.7781335510458973E-01
_DMY_SCF=  1.242806280109152    
_DMZ_SCF= 0.1315619817682783    
_FREQUENCIES= -100.8660782827832    
_HOMO=  25.10000000000000    
_EHOMO=-0.5002185338609145    
_LUMO=  26.10000000000000    
_ELUMO= 0.1171624062210616    
_ENERGY= -698.1447066240422    
_ENERGY_METHOD=HF
_ENERGY_BASIS=6-311G(D,P)
_GEOMETRY_METHOD=HF
_GEOMETRY_BASIS=6-311G(D,P)
_ENUC=  293.9167430700834    
_GRADENERG= -698.1447061176144    
_GRADEXFAC=  9999.000000000000    
_GRADMETHOD=  1.000000000000000    
_NMRMETHOD=  0.000000000000000    
_NMRMAGNET=  0.000000000000000    
_VIRIAL=-0.1216187650694950E-02
!GRID_FREEZE= -1.000000000000000    
!NEESE_INDEX=  0.000000000000000    
_ITERATIONS=  13.00000000000000    
_LASTNELEC=  50.00000000000000    
_LASTSPIN=  0.000000000000000    
_LASTSYM=  1.000000000000000    
_MPP_PROG=  1.000000000000000    
_MSNSTATES=  0.000000000000000    
_RS2PHASE=  0.000000000000000    
_IPROC_MPP=  0.000000000000000    
_IPROC_MPPX=  0.000000000000000    
_NPROC_MPP=  6.000000000000000    
_NPROC_MPPX=  6.000000000000000    
_NPROC_SMP=  8.000000000000000    
_NUMSTEP=  0.000000000000000    
_OPTCONVMX= 0.4649317970187833E-02
_OPTCONVRMS= 0.2082964318345812E-02
_OPTGRAD= 0.5495013461833017E-03
_OPTGRADMX= 0.2812210735716777E-03
_OPTGRADRMS= 0.3663342307888678E-04
_OPTSTEP=  16.00000000000000    
_ORBITAL=  2100.200000000000    
_PI=  3.141592653589793    
_SEIG_MIN= 0.6059003010467662E-02
_SEWPROP=TRUE
_STATUS=  1.000000000000000    
_SYSTOT=  12.02000000000000    
_VERSION=  2022002.000000000    
_WALLTOT=  988.6300000000000    
_ZPE= 0.4208062049932024E-01
_DATE=22-Aug-25
_LASTORB=0
_OUTPUT=/home/zwa/Overlap_Integral_Project/overlap_integral_gaussian/molpro_files/Sulfuricacid/sulfuricacid.out
_PGROUP=C1
_TIME=15:43:06
_LIBMOL=/usr/local/molpro/molpro_2022.2.3_sockets/lib/
_VIGRDC=  0.000000000000000    
!VIBCNT=  0.000000000000000    
!RGHFCNT=  0.000000000000000    
!SURFREC=  0.000000000000000    
!XSURFREC=  0.000000000000000    
!XPOLYREC=  0.000000000000000    
!ROTREC=  0.000000000000000    
!POLYREC=  0.000000000000000    
!DIPREC=  0.000000000000000    
!DIP4DREC=  0.000000000000000    
!DIPROT=  0.000000000000000    
!DIP4DROT=  0.000000000000000    
!PTREC=  0.000000000000000    
!PT4DREC=  0.000000000000000    
!VSCFREC=  0.000000000000000    
!VCIREC=  0.000000000000000    
!PVCIREC=  0.000000000000000    
!VMP2REC=  0.000000000000000    
!VMCSCFREC=  0.000000000000000    
!VMRCIREC=  0.000000000000000    
!VIBSTATEREC=  0.000000000000000    
!VIBSTATECNT=  0.000000000000000    
!VIBINFO=  0.000000000000000    
!GAREC=  0.000000000000000    
!SCFORB=  21002.00000000000    
!DEFCORE=  9.000000000000000    
!SCORE=  1.000000000000000    
!NEWMOL=  0.000000000000000    
!NEWSYM=  0.000000000000000    
_SLFILES=slscratch
_NGSSTO=  9.000000000000000    
_SIN=SIN
_COS=COS
_TAN=TAN
_ACOS=ACOS
_ASIN=ASIN
_ATAN=ATAN
_COSH=COSH
_SINH=SINH
_TANH=TANH
_ABS=ABS
_MOD=MOD
_ERF=ERF
_REFC=REFC
_ERFC=ERFC
_HYPOT=HYPOT
_J0=J0
_J1=J1
_JN=JN
_GAMMA=GAMMA
_LGAMMA=LGAMMA
_Y0=Y0
_Y1=Y1
_YN=YN
_EXP=EXP
_LOG=LOG
_LOG10=LOG10
_SQRT=SQRT
_INT=INT
_NINT=NINT
_MAX=MAX
_MIN=MIN
_COSMO=  0.000000000000000    
_COSMOIT=  0.000000000000000    
_COSMOES=  0.000000000000000    
_COSMOEDS=  0.000000000000000    
_COSMOEC=  0.000000000000000    
_COSMOEDCORR=  0.000000000000000    
_FEPSI=  1.000000000000000    
_SL_IsMM=  0.000000000000000    
_SL_NSYM=  1.000000000000000    
_SL_System_BitSw=  0.000000000000000    
_SL_Unique_atoms=  0.000000000000000    
_SL_GRAD=  0.000000000000000    
_SL_MAXUPD_Hess=  5.000000000000000    
_SL_N_PRINT_COD=  5.000000000000000    
_SL_PRINT_CODES=  0.000000000000000    
_SL_BasType=  0.000000000000000    
_SL_Energy_Pred=  0.000000000000000    
_SL_New_Coords=  0.000000000000000    
_SL_Total_Nuclea=  0.000000000000000    
_SL_Highest_Mltp=  0.000000000000000    
_SL_Ref_Geom=  0.000000000000000    
_SL_Symmetry_ope=  1.000000000000000    
_SL_agrad=  0.000000000000000    
_SL_GrdMax=  0.000000000000000    
_SL_GrdNorm=  0.000000000000000    
_SL_GrdRMS=  0.000000000000000    
_SL_Hss_Q=  0.000000000000000    
_SL_Hss_X=  0.000000000000000    
_SL_BMxOld=  0.000000000000000    
_SL_KtB=  0.000000000000000    
_SL_TROld=  0.000000000000000    
_SL_No_of_Intern=  0.000000000000000    
_SL_Hess=  0.000000000000000    
_SL_K=  0.000000000000000    
!LATTICE= -1.000000000000000    
!NEWLATTICE=  0.000000000000000    
!LATGRAD_VAR=FALSE
!SEW_LATTICE=  1.000000000000000    
!AIC_ONEEL=  0.000000000000000    
!LOCAL=  0.000000000000000    
!SAVEDOM= -1.000000000000000    
!RESTDOM= -1.000000000000000    
!SAVEDOM_HF= -1.000000000000000    
!RESTDOM_HF= -1.000000000000000    
!HESSREC=  5300.200000000000    
!FREQREC=  5400.200000000000    
!NMODREC=  5450.200000000000    
!GTASKS=  0.000000000000000    
!HTASKS=  0.000000000000000    
!SAVEDOM_EOM= -1.000000000000000    
!RESTDOM_EOM= -1.000000000000000    
!GRADSTATE= -1.000000000000000    
!DEBUG=  0.000000000000000    
!CFIT_CPHF=  0.000000000000000    
!RDOMAUX_CPHF=  0.000000000000000    
!THRAO_CPHF= 0.1000000000000000E-11
!THRMO_CPHF= 0.1000000000000000E-11
!THROV_CPHF= 0.1000000000000000E-11
!THRSW_CPHF= 0.1000000000000000E-11
!THRPROD_CPHF= 0.1000000000000000E-11
!THRAOPR_CPHF= 0.1000000000000000E-11
!CFIT_SCFGRD=  0.000000000000000    
!RDOMAUX_SCFGRD=  0.000000000000000    
!THRAO_SCFGRD= 0.1000000000000000E-11
!THRMO_SCFGRD= 0.1000000000000000E-11
!THROV_SCFGRD= 0.1000000000000000E-11
!THRSW_SCFGRD= 0.1000000000000000E-11
!THRPROD_SCFGRD= 0.1000000000000000E-11
!THRAOPR_SCFGRD= 0.1000000000000000E-11
!LOCFIT_SCF=  0.000000000000000    
!LOCFIT_MP2=  0.000000000000000    
_RIDOM=  0.000000000000000    
!CC2_METHOD=  0.000000000000000    
_BASIS2006=FALSE
_SVDDEL= -1.000000000000000    
_SVDDELA= -1.000000000000000    
_SVDDELP= -1.000000000000000    
_SVDDELF= -1.000000000000000    
_SVDDELS= -1.000000000000000    
_SVDDEL_ABS= -1.000000000000000    
_SVDDELA_ABS= -1.000000000000000    
_SVDDELP_ABS= -1.000000000000000    
_SVDDELF_ABS= -1.000000000000000    
_SVDDELS_ABS= -1.000000000000000    
_MAXBASIS=  0.000000000000000    
!OPT_CONICAL=  0.000000000000000    
!CLEARSP_JGRID=  0.000000000000000    
_GRDHYBR=  0.000000000000000    
_STATEGRAD=  1.000000000000000    
_4EXT_NDISKS=  1.000000000000000    
!EMBEDFLAG=  1.000000000000000    
!EMBED=FALSE
!EMBED_F12=FALSE
!EMBEDNUC=  0.000000000000000    
_EMBEDENERGY=  0.000000000000000    
!EMBED_DFC=FALSE
!NUM_VOIDS=  0.000000000000000    
_IBODY=  0.000000000000000    
_EMBE_CORR=  0.000000000000000    
!EMBED_PROJ=FALSE
!EMB_PROJ_ZMU=  1000000.000000000    
!CORRECTION_HF=  0.000000000000000    
!EMBED_AORB=  0.000000000000000    
!EMBED_NACORR=  0.000000000000000    
!EMBED_MP2=FALSE
!EMBED_TRUNC_PERTURBATION=FALSE
!EMBED_FROZEN=  0.000000000000000    
!EMBED_ACTIVE=  0.000000000000000    
_CHANGE_BASIS=FALSE
_RESTORE_BASIS=FALSE
_FIX_EMBED_GUESS=FALSE
_EMBED_SCF=FALSE
_HUZINAGA_T=FALSE
_HUZINAGA_F=FALSE
_HUZINAGA=FALSE
_HUZINAGA_CORRECT=FALSE
!FASTLATGRAD=  1.000000000000000    
!FASTVLAMBDA= -1.000000000000000    
!IFORCE= -1.000000000000000    
!USESYM= -1.000000000000000    
_SINDEX=  0.000000000000000    
_AVDOM_OSV=  0.000000000000000    
_AVDOM_PNO=  0.000000000000000    
_AVDOM_PAO=  0.000000000000000    
_AVDOM_LMO=  0.000000000000000    
_CC2OSV_FLAG=  0.000000000000000    
_EOMCCSD_CONV=FALSE
_TMADC2_FLAG=FALSE
_PROPADC2_FLAG=FALSE
_LEN_VirQ=  0.000000000000000    
_GRDCC2LR_FLAG=FALSE
_GRDADC2_FLAG=FALSE
_RO_VGLOBAL=  0.000000000000000    
_OPT=FALSE
_FREQ=FALSE
_HESS=FALSE
_CMRCC_callName=EMPTY
_CMRCC_callCount=  0.000000000000000    
_GECCO_CIROOT=  1.000000000000000    
_SYM_CATION=  1.000000000000000    
_MON_A=FALSE
_MON_B=FALSE
GX1=-0.6049465091836442E-01
GY1=-0.1087138774821019    
GZ1=-0.3638263178688581E-01
GX2= 0.5794766176505062    
GY2= -1.153003501192407    
GZ2=-0.7153156768280041    
GX3= -1.442503015447421    
GY3=-0.1493046897886174    
GZ3= 0.2322641273006333    
GX4= 0.7095519106763526    
GY4= 0.1466794772075653    
GZ4=  1.285064023621048    
GX5= 0.1985223419737174    
GY5= 0.6571335295939003    
GZ5=  1.898426279932095    
GX6= 0.2677508470722842    
GY6=  1.250613403945557    
GZ6=-0.7466891885436594    
GX7=-0.9304855313922958E-01
GY7=  1.284211575110387    
GZ7= -1.622250280132833    
SX1=-0.1143183222405496    
SY1=-0.2054394543872933    
SZ1=-0.6875320977031807E-01
OX2=  1.095052102983940    
OY2= -2.178860837988271    
OZ2= -1.351750721856244    
OX3= -2.725935633142443    
OY3=-0.2821449728226968    
OZ3= 0.4389155891734124    
OX4=  1.340858782383235    
OY4= 0.2771840400255864    
OZ4=  2.428419057253403    
HX5= 0.3751528559496248    
HY5=  1.241802398241135    
HZ5=  3.587505736863796    
OX6= 0.5059757706031750    
OY6=  2.363316821243080    
OZ6= -1.411038066566570    
HX7=-0.1758362817258314    
HY7=  2.426808163032907    
HZ7= -3.065608735048488    
[Atoms] Angs
S     1   16        -0.0604946509       -0.1087138775       -0.0363826318
O     2    8         0.5794766177       -1.1530035012       -0.7153156768
O     3    8        -1.4425030154       -0.1493046898        0.2322641273
O     4    8         0.7095519107        0.1466794772        1.2850640236
H     5    1         0.1985223420        0.6571335296        1.8984262799
O     6    8         0.2677508471        1.2506134039       -0.7466891885
H     7    1        -0.0930485531        1.2842115751       -1.6222502801
[GTO]
   1 0
 s    6  1.00
  0.9341340000D+05  0.7429999567D-03
  0.1396170000D+05  0.5792999662D-02
  0.3169910000D+04  0.2995399825D-01
  0.9024560000D+03  0.1190279931D+00
  0.2971580000D+03  0.3684319785D+00
  0.1087020000D+03  0.5772989663D+00
 s    3  1.00
  0.1087020000D+03  0.1431860600D+00
  0.4315530000D+02  0.6244652619D+00
  0.1810790000D+02  0.2833661188D+00
 s    1  1.00
  0.5560090000D+01  0.1000000000D+01
 s    1  1.00
  0.2131830000D+01  0.1000000000D+01
 s    1  1.00
  0.4204030000D+00  0.1000000000D+01
 s    1  1.00
  0.1360450000D+00  0.1000000000D+01
 p    4  1.00
  0.4950400000D+03  0.8309002513D-02
  0.1172210000D+03  0.6402401937D-01
  0.3777490000D+02  0.2776140840D+00
  0.1405840000D+02  0.7450762254D+00
 p    2  1.00
  0.5565740000D+01  0.6137116720D+00
  0.2262970000D+01  0.4438177628D+00
 p    1  1.00
  0.8079940000D+00  0.1000000000D+01
 p    1  1.00
  0.2774600000D+00  0.1000000000D+01
 p    1  1.00
  0.7714100000D-01  0.1000000000D+01
 d    1  1.00
  0.6500000000D+00  0.1000000000D+01
  
   2 0
 s    6  1.00
  0.8588500000D+04  0.1895150083D-02
  0.1297230000D+04  0.1438590063D-01
  0.2992960000D+03  0.7073200310D-01
  0.8737710000D+02  0.2400010105D+00
  0.2567890000D+02  0.5947970261D+00
  0.3740040000D+01  0.2808020123D+00
 s    3  1.00
  0.4211750000D+02  0.1138890124D+00
  0.9628370000D+01  0.9208111006D+00
  0.2853320000D+01 -0.3274470358D-02
 s    1  1.00
  0.9056610000D+00  0.1000000000D+01
 s    1  1.00
  0.2556110000D+00  0.1000000000D+01
 p    3  1.00
  0.4211750000D+02  0.3651139738D-01
  0.9628370000D+01  0.2371529830D+00
  0.2853320000D+01  0.8197019412D+00
 p    1  1.00
  0.9056610000D+00  0.1000000000D+01
 p    1  1.00
  0.2556110000D+00  0.1000000000D+01
 d    1  1.00
  0.1292000000D+01  0.1000000000D+01
  
   3 0
 s    6  1.00
  0.8588500000D+04  0.1895150083D-02
  0.1297230000D+04  0.1438590063D-01
  0.2992960000D+03  0.7073200310D-01
  0.8737710000D+02  0.2400010105D+00
  0.2567890000D+02  0.5947970261D+00
  0.3740040000D+01  0.2808020123D+00
 s    3  1.00
  0.4211750000D+02  0.1138890124D+00
  0.9628370000D+01  0.9208111006D+00
  0.2853320000D+01 -0.3274470358D-02
 s    1  1.00
  0.9056610000D+00  0.1000000000D+01
 s    1  1.00
  0.2556110000D+00  0.1000000000D+01
 p    3  1.00
  0.4211750000D+02  0.3651139738D-01
  0.9628370000D+01  0.2371529830D+00
  0.2853320000D+01  0.8197019412D+00
 p    1  1.00
  0.9056610000D+00  0.1000000000D+01
 p    1  1.00
  0.2556110000D+00  0.1000000000D+01
 d    1  1.00
  0.1292000000D+01  0.1000000000D+01
  
   4 0
 s    6  1.00
  0.8588500000D+04  0.1895150083D-02
  0.1297230000D+04  0.1438590063D-01
  0.2992960000D+03  0.7073200310D-01
  0.8737710000D+02  0.2400010105D+00
  0.2567890000D+02  0.5947970261D+00
  0.3740040000D+01  0.2808020123D+00
 s    3  1.00
  0.4211750000D+02  0.1138890124D+00
  0.9628370000D+01  0.9208111006D+00
  0.2853320000D+01 -0.3274470358D-02
 s    1  1.00
  0.9056610000D+00  0.1000000000D+01
 s    1  1.00
  0.2556110000D+00  0.1000000000D+01
 p    3  1.00
  0.4211750000D+02  0.3651139738D-01
  0.9628370000D+01  0.2371529830D+00
  0.2853320000D+01  0.8197019412D+00
 p    1  1.00
  0.9056610000D+00  0.1000000000D+01
 p    1  1.00
  0.2556110000D+00  0.1000000000D+01
 d    1  1.00
  0.1292000000D+01  0.1000000000D+01
  
   5 0
 s    3  1.00
  0.3386500000D+02  0.2549381454D-01
  0.5094790000D+01  0.1903731086D+00
  0.1158790000D+01  0.8521614860D+00
 s    1  1.00
  0.3258400000D+00  0.1000000000D+01
 s    1  1.00
  0.1027410000D+00  0.1000000000D+01
 p    1  1.00
  0.7500000000D+00  0.1000000000D+01
  
   6 0
 s    6  1.00
  0.8588500000D+04  0.1895150083D-02
  0.1297230000D+04  0.1438590063D-01
  0.2992960000D+03  0.7073200310D-01
  0.8737710000D+02  0.2400010105D+00
  0.2567890000D+02  0.5947970261D+00
  0.3740040000D+01  0.2808020123D+00
 s    3  1.00
  0.4211750000D+02  0.1138890124D+00
  0.9628370000D+01  0.9208111006D+00
  0.2853320000D+01 -0.3274470358D-02
 s    1  1.00
  0.9056610000D+00  0.1000000000D+01
 s    1  1.00
  0.2556110000D+00  0.1000000000D+01
 p    3  1.00
  0.4211750000D+02  0.3651139738D-01
  0.9628370000D+01  0.2371529830D+00
  0.2853320000D+01  0.8197019412D+00
 p    1  1.00
  0.9056610000D+00  0.1000000000D+01
 p    1  1.00
  0.2556110000D+00  0.1000000000D+01
 d    1  1.00
  0.1292000000D+01  0.1000000000D+01
  
   7 0
 s    3  1.00
  0.3386500000D+02  0.2549381454D-01
  0.5094790000D+01  0.1903731086D+00
  0.1158790000D+01  0.8521614860D+00
 s    1  1.00
  0.3258400000D+00  0.1000000000D+01
 s    1  1.00
  0.1027410000D+00  0.1000000000D+01
 p    1  1.00
  0.7500000000D+00  0.1000000000D+01


[MO]
 Sym=      1.1
 Ene=     -92.2788
 Spin= Alpha
 Occup=    2.000000
1 0.41107655431649
2 0.65498369716282
3 0.012179698958715
4 -0.001405357072618
5 0.000459403209157
6 -0.000052544373378
7 0.000030751391543
8 0.000046518953708
9 0.000018885145859
10 -0.000008042744324
11 -0.000011617424273
12 -0.000004788087136
13 0.000005777595508
14 0.000006920288188
15 0.000002055146827
16 -0.000014277553411
17 -0.000021743463598
18 -0.000001134953782
19 -0.000002695223897
20 -0.000016771068485
21 -0.000001139927382
22 0.000009494853713
23 -0.000003528145794
24 -0.000005966707919
25 -0.000008229804959
26 -0.000009754602650
27 0.000010882452276
28 -0.000000283352662
29 0.000003281005817
30 0.000005363295396
31 -0.000069097807816
32 -0.000002479939659
33 0.000006072174285
34 0.000003242702973
35 0.000013411497152
36 -0.000027927330160
37 -0.000015897027257
38 0.000027635745903
39 -0.000030966989650
40 -0.000025945003648
41 0.000005188770058
42 -0.000009009025251
43 0.000003820255193
44 0.000015764113512
45 0.000010257288687
46 -0.000017249496390
47 -0.000000331568602
48 0.000003556983154
49 0.000003018020145
50 -0.000061409833990
51 0.000007035364846
52 0.000001301062670
53 -0.000001138888577
54 -0.000032987884956
55 -0.000004350329366
56 0.000005762617332
57 -0.000046814391900
58 0.000006965997904
59 0.000010123677831
60 -0.000025401422201
61 0.000013221175283
62 0.000012180246918
63 -0.000001503133310
64 0.000008287747671
65 0.000000138363336
66 0.000000302192775
67 0.000000555082832
68 0.000012645008551
69 -0.000062937222420
70 -0.000003349183872
71 -0.000000673247646
72 -0.000005301524939
73 0.000010359495700
74 0.000000318252116
75 0.000013009225717
76 0.000034301020709
77 -0.000003488479282
78 0.000015719141490
79 0.000000305079263
80 0.000010352031540
81 -0.000010657110803
82 0.000000920903057
83 -0.000012723739748
84 -0.000007261198730
85 -0.000002200754271
86 0.000034097347807
87 0.000009758285740
88 -0.000003108622937
89 -0.000006256342019
90 -0.000015776693350
91 0.000000182203430
92 0.000001101940696
93 0.000007211131660
94 -0.000039834814750
95 -0.000001010787429
96 -0.000005089965704
97 0.000003685604591
98 0.000003144758520
99 0.000013629528705
100 -0.000009147140821
101 0.000016277903900
102 0.000025962505902
103 0.000013176078066
104 0.000008905561049
105 -0.000010712453392
106 0.000001806892343
107 -0.000007487192317
108 0.000000130391744
109 0.000011001229744
110 -0.000001126869802
111 0.000024934707999
112 0.000013719165477
113 -0.000000385344553
114 -0.000009045041624
115 0.000008706419535
 Sym=      2.1
 Ene=     -20.6581
 Spin= Alpha
 Occup=    2.000000
1 0.000002870649135
2 0.000006470849919
3 -0.000001623183948
4 -0.000077175151565
5 0.000068381420742
6 0.000582795915569
7 -0.000004862113717
8 -0.000002587576829
9 -0.000008793908805
10 -0.000024548752566
11 -0.000007722259017
12 -0.000042953735500
13 0.000045855515763
14 0.000002121359151
15 0.000073642770909
16 0.000087398179524
17 0.000078471465496
18 0.000200751339909
19 0.000162526888562
20 -0.000011206183249
21 0.000124947684230
22 -0.000030404050887
23 -0.000054677388287
24 0.000085081439174
25 0.000027725394284
26 0.000084614875773
27 0.000032916359214
28 -0.000074087826309
29 -0.000067728510662
30 0.000039508801585
31 -0.000160687395215
32 -0.000002708188571
33 -0.000003107371156
34 -0.000007227159081
35 0.000003693983104
36 0.000003641113625
37 0.000002094423439
38 -0.000027785471731
39 -0.000029954752543
40 -0.000058813871110
41 0.000001328766744
42 0.000001346962139
43 -0.000002675728883
44 -0.000004804028586
45 -0.000000841217480
46 0.000001882480471
47 -0.000093414147576
48 -0.000082532896538
49 0.000027029121671
50 -0.000123667346901
51 -0.000011004961266
52 -0.000000901268486
53 -0.000007379902962
54 0.000017005842965
55 -0.000000813680030
56 0.000005681348587
57 -0.000114765756280
58 -0.000010873520475
59 -0.000066750789211
60 -0.000003914298498
61 0.000001483451533
62 0.000002430846965
63 -0.000002335724888
64 -0.000012156055311
65 -0.000001339715897
66 0.55142852150108
67 0.47165093309807
68 0.005718266185548
69 -0.000737285898698
70 -0.001593721309971
71 0.000580940559627
72 -0.000416602164587
73 0.000523726987491
74 -0.000219497152355
75 0.000077275536816
76 -0.000073947533039
77 0.000098741807464
78 0.000140320546804
79 0.000021343267617
80 0.000050891247760
81 -0.000072234515377
82 0.000027805113652
83 -0.000033704988565
84 -0.000063720324283
85 0.000196863124257
86 0.000038983027667
87 0.000048882428630
88 -0.000007741863080
89 -0.000024861119243
90 -0.000063053647303
91 -0.000997986362412
92 -0.000854334907006
93 0.000010295412350
94 -0.000198939682458
95 -0.000000716286335
96 0.000003885618550
97 -0.000000582459536
98 0.000007477661038
99 0.000007166461286
100 -0.000010241209772
101 -0.000006404927557
102 0.000044691976856
103 -0.000010259163206
104 0.000004425721610
105 0.000005990770754
106 -0.000010416492364
107 0.000003345871874
108 -0.000003919754890
109 0.000004185026019
110 -0.000001825616430
111 0.000057568059436
112 0.000027148241559
113 0.000005400137341
114 -0.000006452184413
115 0.000021824142379
 Sym=      3.1
 Ene=     -20.6527
 Spin= Alpha
 Occup=    2.000000
1 0.000002668532376
2 0.000006790243985
3 -0.000006993623895
4 -0.000060583846235
5 0.000021708521971
6 0.000702654099167
7 -0.000002563922031
8 -0.000008773606362
9 0.000004617427029
10 -0.000006752528948
11 -0.000039567151813
12 0.000022641882059
13 0.000003939854380
14 0.000065128587894
15 -0.000036734950660
16 0.000078844033469
17 0.000191180086788
18 -0.000115914564248
19 0.000100645533938
20 0.000198506818083
21 0.000070293664289
22 -0.000049293414176
23 0.000072528732001
24 -0.000023235317825
25 0.000024746162571
26 -0.000023885222736
27 -0.000095495631263
28 -0.000097609431448
29 -0.000085309709901
30 0.000023444450528
31 -0.000144376839902
32 -0.000000675114434
33 -0.000010490295622
34 -0.000000425497242
35 0.000004209106228
36 0.000007521757966
37 0.000010459110339
38 -0.000010146702279
39 -0.000124498907589
40 -0.000026509001514
41 0.000006764130856
42 -0.000010556482435
43 0.000003792351579
44 -0.000001215751937
45 -0.000003991629334
46 0.000001536783901
47 -0.000098980527276
48 -0.000087587718473
49 0.000031532912694
50 -0.000148289583179
51 -0.000007152020806
52 -0.000007238763794
53 0.000001557685865
54 0.000011271106555
55 0.000004408138983
56 0.000011112559850
57 -0.000082823810099
58 -0.000078795375274
59 0.000007095797102
60 0.000002040727800
61 -0.000001014792552
62 -0.000001025935247
63 -0.000009635965862
64 0.000002229713588
65 0.000004224313424
66 0.001000537252298
67 0.000853029776687
68 0.000037239561374
69 -0.000142869613537
70 -0.000002663458197
71 0.000001660932050
72 0.000004739988510
73 0.000004295884953
74 -0.000012441750599
75 0.000006195007403
76 -0.000023719707730
77 0.000031581046881
78 0.000097261676829
79 0.000001469470290
80 0.000001583570538
81 -0.000003053040828
82 -0.000002973023706
83 -0.000001202781620
84 0.000006603487783
85 0.000014339491828
86 -0.000092215012354
87 -0.000056454534513
88 -0.000000055487350
89 0.000004120638714
90 0.000024701276992
91 0.55142921857318
92 0.47165136934355
93 0.005719245187706
94 -0.000740632272862
95 -0.000905652321160
96 -0.001282851685595
97 -0.000658757580804
98 0.000305353267249
99 0.000387273157936
100 0.000275786448383
101 -0.000067115426495
102 0.000052716025548
103 -0.000208933544653
104 0.000072032236216
105 -0.000037062319876
106 -0.000034969916340
107 -0.000039654690295
108 -0.000033288726001
109 0.000073140068618
110 0.000198854231830
111 0.000009443199846
112 0.000070352580472
113 -0.000001239089363
114 -0.000046094350853
115 0.000046512007642
 Sym=      4.1
 Ene=     -20.5792
 Spin= Alpha
 Occup=    2.000000
1 0.000004839641144
2 0.000010900266247
3 -0.000002626587166
4 -0.000132058428634
5 0.000146388754304
6 0.000650569298517
7 0.000011814360381
8 -0.000000650473313
9 -0.000002768287246
10 0.000084591173296
11 0.000002531661243
12 -0.000016203078259
13 -0.000152576604916
14 -0.000015053676344
15 0.000023091505727
16 -0.000273080435682
17 0.000037151095597
18 0.000087414832062
19 -0.000232081169601
20 0.000046777513848
21 0.000077591383648
22 0.000164573104363
23 -0.000090937208032
24 -0.000073635896331
25 0.000013167370010
26 -0.000052197727441
27 -0.000006679327338
28 -0.017551936461328
29 -0.015014641551508
30 -0.000153483176266
31 -0.000052434864959
32 0.000043987443990
33 -0.000049204847465
34 -0.000034442919858
35 -0.000035656021126
36 0.000021589598062
37 0.000020172717973
38 0.000120690861815
39 -0.000025595175540
40 -0.000042105741722
41 -0.000004678139427
42 0.000002325063896
43 0.000002353075530
44 0.000000465798268
45 0.000002310447833
46 -0.000000256379973
47 0.55117768465350
48 0.47143889331288
49 0.005542015660444
50 -0.000717736945856
51 0.001864552580819
52 0.000090952449947
53 -0.000340601337293
54 -0.000553068811562
55 -0.000022105910771
56 0.000102135819143
57 0.000013963235911
58 -0.000010050739018
59 -0.000005719294408
60 -0.000018008500557
61 0.000016810700096
62 0.000001197800461
63 0.000001414734568
64 0.000006269076552
65 0.000004127198512
66 0.000093578099281
67 0.000078589294739
68 0.000026305315471
69 -0.000168252122542
70 0.000009882428085
71 0.000002826949081
72 0.000005559232148
73 -0.000007559464128
74 -0.000004681245644
75 -0.000006512862408
76 0.000135688253340
77 -0.000004856394848
78 0.000023512215821
79 -0.000008198253129
80 0.000004908968576
81 0.000003289284553
82 0.000002350759929
83 -0.000000923075554
84 -0.000004550800704
85 0.000007695771170
86 0.000046619181947
87 -0.000043854222235
88 0.000012859220761
89 -0.000014336960288
90 -0.000002418578678
91 0.000098118725338
92 0.000082035060167
93 0.000025431019245
94 -0.000130083639491
95 0.000009567392849
96 0.000003846792221
97 -0.000005636095352
98 -0.000011528400970
99 0.000003564308260
100 0.000005928251004
101 0.000100248142735
102 0.000037956873388
103 -0.000062137640359
104 -0.000005235699895
105 0.000004948144008
106 0.000000287555887
107 -0.000008100433294
108 0.000005084236854
109 0.000002949929324
110 0.000009689199085
111 -0.000016788768119
112 -0.000010340257570
113 -0.000003055921997
114 0.000007784460792
115 -0.000000235823786
 Sym=      5.1
 Ene=     -20.5788
 Spin= Alpha
 Occup=    2.000000
1 0.000005360230670
2 0.000011682422363
3 -0.000000039121928
4 -0.000152509110876
5 0.000195327260478
6 0.000537139884828
7 -0.000005743081750
8 0.000008504449354
9 0.000005442418918
10 -0.000035923583865
11 0.000066165169255
12 0.000042437530191
13 0.000056154470706
14 -0.000124064142650
15 -0.000079473267496
16 0.000155411474265
17 -0.000195290527408
18 -0.000125111781677
19 0.000127540660821
20 -0.000168878462851
21 -0.000170195684484
22 -0.000030702290699
23 0.000056905994198
24 -0.000026203703500
25 -0.000105361674993
26 -0.000067462193076
27 0.000110693544132
28 0.55117943485396
29 0.47143968783291
30 0.005534593231032
31 -0.000709681987476
32 -0.000878268393377
33 0.001460049998886
34 0.000923676432163
35 0.000263264833443
36 -0.000434785754225
37 -0.000282487968112
38 -0.000017093496824
39 0.000022418777826
40 0.000027404783111
41 0.000008784129976
42 -0.000000794188927
43 -0.000007989941049
44 0.000014345237237
45 -0.000001197014443
46 -0.000009094373895
47 0.017554235319589
48 0.015013519529222
49 0.000191428506458
50 -0.000062128764550
51 0.000049331805243
52 0.000013782110741
53 -0.000002191428166
54 0.000000818821966
55 -0.000018599448723
56 -0.000012625188206
57 -0.000064713868457
58 0.000082268439800
59 0.000064575775989
60 -0.000000359371555
61 -0.000000012209219
62 0.000000371580774
63 0.000003691057312
64 0.000002794508555
65 -0.000003134354625
66 0.000079789477075
67 0.000066822498645
68 0.000020238218904
69 -0.000122859483755
70 -0.000001508864301
71 0.000005221023157
72 0.000004721035091
73 0.000012116098960
74 -0.000004570223733
75 0.000003563099687
76 -0.000023541326315
77 0.000060841386468
78 0.000064978753007
79 0.000003384475003
80 -0.000001789237662
81 -0.000001595237341
82 -0.000001268307194
83 0.000004070360378
84 -0.000005733448502
85 0.000003034755397
86 -0.000022121986729
87 0.000080145381520
88 -0.000006699206742
89 -0.000003677242996
90 -0.000011827990374
91 0.000103192565267
92 0.000087189401954
93 0.000017202979690
94 -0.000086335522106
95 -0.000004034155395
96 0.000012055128514
97 0.000000829386945
98 0.000010017080242
99 -0.000010432168004
100 -0.000005485321270
101 -0.000050826566108
102 0.000106044502742
103 0.000012811185030
104 0.000004397658416
105 -0.000009105018787
106 0.000004707360371
107 0.000005459319520
108 -0.000001328404936
109 -0.000002909287965
110 0.000008967377696
111 -0.000020117582549
112 -0.000031064163285
113 0.000006247695643
114 0.000006228151848
115 -0.000007975014398
 Sym=      6.1
 Ene=      -9.2495
 Spin= Alpha
 Occup=    2.000000
1 -0.11980604689111
2 -0.32508006111168
3 0.53419685882246
4 0.58550367838728
5 0.037752762773978
6 -0.006544697233652
7 0.000760503912125
8 0.001168720093338
9 0.000467860802812
10 0.001947187376246
11 0.002994750514893
12 0.001200974503332
13 0.000310635779013
14 0.000399986297141
15 0.000144403661637
16 -0.000204433747336
17 -0.000017974545075
18 0.000194752992846
19 -0.000121801049367
20 -0.000803575816798