
 Working directory              : /tmp/zwa/molpro.ay7dp4wf6c/
 Global scratch directory       : /tmp/zwa/molpro.ay7dp4wf6c/
 Wavefunction directory         : /home/zwa/wfu/
 Main file repository           : /tmp/zwa/molpro.ay7dp4wf6c/

 id        : liedlgroup

 Nodes     nprocs
 rh2-c724     6
 GA implementation: MPI file
 GA implementation (serial work in mppx): MPI file

 Using customized tuning parameters: mindgm=1; mindgv=20; mindgc=4; mindgr=1; noblas=0; minvec=7
 default implementation of scratch files=sf  


 Variables initialized (1015), CPU time= 0.02 sec
 memory, 1000, m
  orient,mass
  geometry = {
  S,               -0.58472245,  -3.26806971,  -1.33446470
  O,               -0.02807489,  -4.84256756,  -1.33446470
  O,               -2.25472245,  -3.26804913,  -1.33446470
  O,               -0.02804615,  -2.48083141,   0.02908484
  H,               -0.34638551,  -1.57514943,   0.02863278
  O,               -0.02804615,  -2.48083141,  -2.69801425
  H,               -0.29186816,  -2.97013184,  -3.48069109
  }
 
  mass, iso
  basis=6-311G(d,p)
 
  {hf
  start,atden}
 
  optg
  {frequencies, symm=auto, print=0,analytical}
  put,molden,sulfuricacid.molden
 
 Commands initialized (834), CPU time= 0.03 sec, 672 directives.
 Default parameters read. Elapsed time= 1.00 sec

 Checking input...
 Passed
1


                                         ***  PROGRAM SYSTEM MOLPRO  ***
                                       Copyright, TTI GmbH Stuttgart, 2015
                                    Version 2022.2 linked Thu Sep 29 12:37:28 2022


 **********************************************************************************************************************************
 LABEL *                                                                                 
  (8 PROC) 64 bit mpp version                                                            DATE: 22-Aug-25          TIME: 15:43:06  
 **********************************************************************************************************************************

 SHA1:             51306cdc306ce2a111a2867affebcb289530e0a7
 **********************************************************************************************************************************

 Memory per process:      1000 MW
 Total memory per node:   6000 MW

 GA preallocation disabled
 GA check disabled

 Variable memory set to 1000.0 MW

 ZCENTRE=MASS


 Geometry recognized as XYZ



 Using masses of most abundant isotopes

 **********************************************************************************************************************************
 SETTING BASIS          =    6-311G(D,P)


 Recomputing integrals since basis changed


 Using spherical harmonics

 Library entry S      S 6-311G               selected for orbital group  1
 Library entry S      P 6-311G               selected for orbital group  1
 Library entry S      D 6-311G*              selected for orbital group  1
 Library entry O      S 6-311G               selected for orbital group  2
 Library entry O      P 6-311G               selected for orbital group  2
 Library entry O      D 6-311G*              selected for orbital group  2
 Library entry H      S 6-311G               selected for orbital group  3
 Library entry H      P 6-311G**             selected for orbital group  3


 PROGRAM * SEWARD (Integral evaluation for generally contracted gaussian basis sets)     Author: Roland Lindh, 1990

 Geometry written to block  1 of record 700

 Orientation using atomic masses  
 Molecule type: Asymmetric top
 Rotational constants:       3.9316474      4.0063912      4.1645257 GHz

 Point group  C1  



 ATOMIC COORDINATES

 NR  ATOM    CHARGE       X              Y              Z

   1  S      16.00   -0.000000231   -0.042852187    0.000000231
   2  O       8.00    1.671752588   -2.476629557   -1.114141980
   3  O       8.00   -3.062513596   -0.803297994    0.045571713
   4  O       8.00    0.958317174    0.638824367    2.928530151
   5  H       1.00    0.000007213    2.039929062    3.568562180
   6  O       8.00    0.432443478    2.469693373   -1.859959449
   7  H       1.00    0.000005786    2.039903875   -3.568576425

 Bond lengths in Bohr (Angstrom)

 1-2  3.155842620  1-3  3.155842628  1-4  3.155842624  1-6  3.155842639  4-5  1.814137081
     ( 1.669999996)     ( 1.670000000)     ( 1.669999998)     ( 1.670000006)     ( 0.960000001)

 6-7  1.814137079
     ( 0.960000000)

 Bond angles

  1-4-5  109.50000010   1-6-7  109.49999983   2-1-3  109.47123147   2-1-4  109.47120270

  2-1-6  109.47120260   3-1-4  109.47121818   3-1-6  109.47121809   4-1-6  109.47125076

 NUCLEAR CHARGE:                   50
 NUMBER OF PRIMITIVE AOS:         190
 NUMBER OF SYMMETRY AOS:          185
 NUMBER OF CONTRACTIONS:          110   (  110A   )
 NUMBER OF INNER CORE ORBITALS:     1   (    1A   )
 NUMBER OF OUTER CORE ORBITALS:     8   (    8A   )
 NUMBER OF VALENCE ORBITALS:       22   (   22A   )


 NUCLEAR REPULSION ENERGY  261.69445002


 Eigenvalues of metric

         1 0.105E-01 0.207E-01 0.237E-01 0.407E-01 0.433E-01 0.464E-01 0.515E-01 0.519E-01


 Contracted 2-electron integrals neglected if value below      1.0D-11
 AO integral compression algorithm  1   Integral accuracy      1.0D-11

     60.555 MB (compressed) written to integral file ( 33.8%)

     Node minimum: 7.340 MB, node maximum: 12.059 MB


 NUMBER OF SORTED TWO-ELECTRON INTEGRALS:    3105918.     BUFFER LENGTH:  32768
 NUMBER OF SEGMENTS:   1  SEGMENT LENGTH:    3105918      RECORD LENGTH: 524288

 Memory used in sort:       3.66 MW

 SORT1 READ    22136370. AND WROTE     2316895. INTEGRALS IN      7 RECORDS. CPU TIME:     1.28 SEC, REAL TIME:     2.81 SEC
 SORT2 READ    13626342. AND WROTE    18638565. INTEGRALS IN    186 RECORDS. CPU TIME:     0.17 SEC, REAL TIME:     0.26 SEC

 Node minimum:     3103884.  Node maximum:     3108972. integrals

 OPERATOR DM      FOR CENTER  0  COORDINATES:    0.000000    0.000000    0.000000


 **********************************************************************************************************************************
 DATASETS  * FILE   NREC   LENGTH (MB)   RECORD NAMES
              1      18       29.11       500      610      700      900      950      970     1000      129      960     1100   
                                          VAR    BASINP    GEOM    SYMINP    ZMAT    AOBASIS   BASIS     P2S    ABASIS      S 
                                         1400     1410     1200     1210     1080     1600     1650     1700   
                                           T        V       H0       H01     AOSYM     SMH    MOLCAS    OPER   

 PROGRAMS   *        TOTAL       INT
 CPU TIMES  *         5.30      4.52
 REAL TIME  *         8.13 SEC
 DISK USED  *        29.49 MB (local),      390.94 MB (total)
 GA USED    *         0.00 MB       (max)       0.00 MB       (current)
 **********************************************************************************************************************************


 Program * Restricted Hartree-Fock

 Orbital guess generated from atomic densities.

 Initial occupancy:  25

 NELEC=   50   SYM=1   MS2= 0   THRE=1.0D-08   THRD=1.0D-06   THRG=1.0D-06  HFMA2=F  DIIS_START=2   DIIS_MAX=10   DIIS_INCORE=F

 Level shifts:    0.00 (CLOSED)    0.00 (OPEN)    0.30 (GAP_MIN)

 ITER           ETOT              DE          GRAD        DDIFF     DIIS  NEXP   TIME(IT)  TIME(TOT)  DIAG
   1     -697.67512301    -697.67512301     0.00D+00     0.64D-01     0     0       0.81      4.36    start
   2     -697.74565123      -0.07052822     0.13D-01     0.17D-01     1     0       1.55      5.91    diag
   3     -697.99476130      -0.24911007     0.13D-01     0.83D-02     2     0       3.35      9.26    diag
   4     -697.99939047      -0.00462916     0.12D-02     0.12D-02     3     0       3.36     12.62    diag
   5     -698.00091055      -0.00152008     0.66D-03     0.67D-03     4     0       3.32     15.94    diag
   6     -698.00128909      -0.00037854     0.23D-03     0.43D-03     5     0       3.61     19.55    diag
   7     -698.00134452      -0.00005544     0.80D-04     0.21D-03     6     0       1.18     20.73    diag
   8     -698.00134756      -0.00000304     0.24D-04     0.42D-04     7     0       3.17     23.90    fixocc
   9     -698.00134796      -0.00000040     0.95D-05     0.14D-04     8     0       3.63     27.53    diag
  10     -698.00134803      -0.00000007     0.44D-05     0.51D-05     9     0       3.73     31.26    diag/orth
  11     -698.00134805      -0.00000002     0.16D-05     0.29D-05     9     0       3.62     34.88    diag
  12     -698.00134805      -0.00000000     0.56D-06     0.12D-05     9     0       3.92     38.80    diag
  13     -698.00134805      -0.00000000     0.29D-06     0.40D-06     9     0       4.12     42.92    diag
  14     -698.00134805      -0.00000000     0.16D-06     0.21D-06     0     0       3.58     46.50    diag

 Final occupancy:  25

 !RHF STATE 1.1 Energy               -698.001348051476
  RHF One-electron energy           -1482.553337142027
  RHF Two-electron energy             522.857539067541
  RHF Kinetic energy                  696.861638816399
  RHF Nuclear energy                  261.694450023009
  RHF Virial quotient                  -1.001635488556

 !RHF STATE 1.1 Dipole moment           0.13438807     1.91622190     0.11031589
 Dipole moment /Debye                   0.34158040     4.87055025     0.28039502

 Orbital energies:

           1.1          2.1          3.1          4.1          5.1          6.1          7.1          8.1          9.1         10.1
    -92.297019   -20.707539   -20.694446   -20.595178   -20.591856    -9.266400    -6.950493    -6.949627    -6.947835    -1.524422

          11.1         12.1         13.1         14.1         15.1         16.1         17.1         18.1         19.1         20.1
     -1.463812    -1.337734    -1.281261    -0.985133    -0.836040    -0.766484    -0.722511    -0.670012    -0.659707    -0.626186

          21.1         22.1         23.1         24.1         25.1         26.1         27.1
     -0.558770    -0.513485    -0.509892    -0.488698    -0.474600     0.062019     0.119276


 HOMO     25.1    -0.474600 =     -12.9145eV
 LUMO     26.1     0.062019 =       1.6876eV
 LUMO-HOMO         0.536619 =      14.6021eV

 Orbitals saved in record  2100.2


 **********************************************************************************************************************************
 DATASETS  * FILE   NREC   LENGTH (MB)   RECORD NAMES
              1      18       29.11       500      610      700      900      950      970     1000      129      960     1100   
                                          VAR    BASINP    GEOM    SYMINP    ZMAT    AOBASIS   BASIS     P2S    ABASIS      S 
                                         1400     1410     1200     1210     1080     1600     1650     1700   
                                           T        V       H0       H01     AOSYM     SMH    MOLCAS    OPER   

              2       4        0.64       700     1000      520     2100   
                                         GEOM     BASIS   MCVARS     RHF  

 PROGRAMS   *        TOTAL    HF-SCF       INT
 CPU TIMES  *        51.95     46.63      4.52
 REAL TIME  *        43.57 SEC
 DISK USED  *        30.65 MB (local),      397.87 MB (total)
 GA USED    *         0.00 MB       (max)       0.00 MB       (current)
 **********************************************************************************************************************************


 PROGRAM * OPT (Geometry optimization)     Authors: F. Eckert and H.-J. Werner


 BFGS update of hessian

 *** Long output written to logfile /home/zwa/Overlap_Integral_Project/overlap_integral_gaussian/molpro_files/Sulfuricacid/sulfuricacid.log ***


 Geometry optimization using default procedure for command HF-SCF

 Geometry written to block  1 of record 700

 Making model hessian for cartesian coordinates

 Entering Rational Function Geometry Optimization

 ITER.   ENERGY(OLD)    ENERGY(NEW)      DE          GRADMAX     GRADNORM    GRADRMS     STEPMAX     STEPLEN     STEPRMS   CPU-time
   1  -698.00134805  -698.06048317    -0.05913512  0.20214566  0.27476472  0.01831765  0.19092630  0.30000000  0.11338934     63.45
   2  -698.06048317  -698.12123559    -0.06075242  0.19541296  0.25063381  0.01670892  0.25804388  0.30000000  0.11338934    162.83
   3  -698.12123559  -698.14045785    -0.01922227  0.13020393  0.15843646  0.01056243  0.23794650  0.30000000  0.11338934    264.07
   4  -698.14045785  -698.14360737    -0.00314952  0.07517879  0.09605262  0.00640351  0.06775161  0.11128550  0.04206196    296.80
   5  -698.14360737  -698.14428392    -0.00067654  0.01654508  0.02822818  0.00188188  0.05339640  0.06667229  0.02519976    319.83
   6  -698.14428392  -698.14451398    -0.00023006  0.01001187  0.01513230  0.00100882  0.04506213  0.05622331  0.02125042    343.13
   7  -698.14451398  -698.14456180    -0.00004782  0.00286982  0.00429649  0.00028643  0.01962703  0.03135238  0.01185008    366.41
   8  -698.14456180  -698.14464034    -0.00007854  0.00253217  0.00383031  0.00025535  0.06428483  0.09238272  0.03491739    389.86
   9  -698.14464034  -698.14467029    -0.00002995  0.00429345  0.00639499  0.00042633  0.02396433  0.03720218  0.01406110    412.83
  10  -698.14467029  -698.14469530    -0.00002501  0.00309037  0.00466986  0.00031132  0.02671603  0.04226526  0.01597477    435.81
  11  -698.14469530  -698.14469994    -0.00000464  0.00189002  0.00215784  0.00014386  0.01463054  0.02316443  0.00875533    458.80
  12  -698.14469994  -698.14470218    -0.00000224  0.00164748  0.00189681  0.00012645  0.00537904  0.00836798  0.00316280    481.32
  13  -698.14470218  -698.14470383    -0.00000165  0.00108969  0.00153822  0.00010255  0.00643808  0.00881996  0.00333363    504.16
  14  -698.14470383  -698.14470529    -0.00000146  0.00080282  0.00107794  0.00007186  0.00430653  0.00575843  0.00217648    527.92
  15  -698.14470529  -698.14470612    -0.00000083  0.00046369  0.00074070  0.00004938  0.00390393  0.00526384  0.00198955    550.93
  16  -698.14470612  -698.14470662    -0.00000051  0.00028122  0.00054950  0.00003663  0.00464932  0.00551101  0.00208296    573.61

 END OF GEOMETRY OPTIMIZATION.

 Geometry written to block  1 of record 700

 Recomputing wavefunction for reoriented structure

 Current geometry (xyz format, in Angstrom)

    7
 HF-SCF000/6-311G(D,P)  ENERGY=-698.14470662
 S         -0.0604946509       -0.1087138775       -0.0363826318
 O          0.5794766177       -1.1530035012       -0.7153156768
 O         -1.4425030154       -0.1493046898        0.2322641273
 O          0.7095519107        0.1466794772        1.2850640236
 H          0.1985223420        0.6571335296        1.8984262799
 O          0.2677508471        1.2506134039       -0.7466891885
 H         -0.0930485531        1.2842115751       -1.6222502801

 **********************************************************************************************************************************


 **********************************************************************************************************************************
 DATASETS  * FILE   NREC   LENGTH (MB)   RECORD NAMES
              1      18       29.11       500      610      700      900      950      970     1000      129      960     1100   
                                          VAR    BASINP    GEOM    SYMINP    ZMAT    AOBASIS   BASIS     P2S    ABASIS      S 
                                         1400     1410     1200     1210     1080     1600     1650     1700   
                                           T        V       H0       H01     AOSYM     SMH    MOLCAS    OPER   

              2       4        0.64       700     1000      520     2100   
                                         GEOM     BASIS   MCVARS     RHF  

 PROGRAMS   *        TOTAL      OPTG    HF-SCF       INT
 CPU TIMES  *       631.81    579.86     46.63      4.52
 REAL TIME  *       527.22 SEC
 DISK USED  *        30.65 MB (local),      432.30 MB (total)
 SF USED    *         0.06 MB
 GA USED    *         0.00 MB       (max)       0.00 MB       (current)
 **********************************************************************************************************************************


 PROGRAM * HESSIAN

 PROGRAM * MCKINLEY (Hessian of the energy)     Author: A. Bernhardsson, R. Lindh

 Orbitals from record         2100.2

 Number of closed-shell orbitals: 25 ( 25 )
 Number of occupied orbitals:     25 ( 25 )

 Number of electrons= 50     Singlet     Space symmetry=1      Wavefunction type: CLOSED          


 McKinley needed    359.56 seconds of CPU time

 Entering CPHF calculation

 CPHF needed 186 iterations for 21 perturbations.  Total CPU time:  205.81 sec


 HF-SCF hessian saved to record  5300.2

 PROGRAM * FREQUENCIES (Calculation of harmonic vibrational spectra for HF-SCF)


 Permanent Dipole Moment [debye]
   1-  3    0.000000    0.000000    0.000000

 Dipole Moment Norm    0.0000000 [debye]

 Dipole Moment Derivatives [debye/ang]
              1             2             3             4             5             6             7             8
    1    0.00000000    0.00000000    0.00000000    0.00000000    0.00000000    0.00000000    0.00000000    0.00000000
    2    0.00000000    0.00000000    0.00000000    0.00000000    0.00000000    0.00000000    0.00000000    0.00000000
    3    0.00000000    0.00000000    0.00000000    0.00000000    0.00000000    0.00000000    0.00000000    0.00000000
              9            10            11            12            13            14            15            16
    1    0.00000000    0.00000000    0.00000000    0.00000000    0.00000000    0.00000000    0.00000000    0.00000000
    2    0.00000000    0.00000000    0.00000000    0.00000000    0.00000000    0.00000000    0.00000000    0.00000000
    3    0.00000000    0.00000000    0.00000000    0.00000000    0.00000000    0.00000000    0.00000000    0.00000000
             17            18            19            20            21
    1    0.00000000    0.00000000    0.00000000    0.00000000    0.00000000
    2    0.00000000    0.00000000    0.00000000    0.00000000    0.00000000
    3    0.00000000    0.00000000    0.00000000    0.00000000    0.00000000

 Projecting out rotations and translations

 Force Constants (Second Derivatives of the Energy) in [a.u.]
                             SX1         SY1         SZ1         OX2         OY2     
           SX1           1.2143669
           SY1          -0.1705949   0.9418521
           SZ1          -0.1865161   0.1977732   0.8684553
           OX2          -0.2599539   0.2291796   0.1492586   0.2448788
           OY2           0.2307610  -0.4668570  -0.2317975  -0.2543354   0.5066871
           OZ2           0.1474698  -0.2257208  -0.2606406  -0.1673906   0.2729346
           OX3          -0.7040624  -0.0062688   0.1167648  -0.0197057  -0.0032908
           OY3          -0.0126427  -0.1141078  -0.0008583   0.0404434   0.0105105
           OZ3           0.1185665  -0.0009754  -0.1439108   0.0308134  -0.0077176
           OX4          -0.1728216   0.0021872  -0.0739570   0.0190681   0.0126689
           OY4          -0.0145448  -0.1045768  -0.0539817  -0.0105517  -0.0049804
           OZ4          -0.1048021  -0.0389638  -0.2593200  -0.0125483  -0.0178685
           HX5           0.0207769  -0.0147539  -0.0204122  -0.0014671  -0.0040702
           HY5           0.0024215  -0.0002451  -0.0110484  -0.0007796   0.0021501
           HZ5           0.0146783  -0.0260489  -0.0369916  -0.0027786  -0.0003668
           OX6          -0.1091509  -0.0379206   0.0065399   0.0190114   0.0193149
           OY6          -0.0476099  -0.2510424   0.0559663  -0.0028487  -0.0481186
           OZ6           0.0172753   0.0826316  -0.1477393   0.0010739  -0.0093510
           HX7           0.0108451  -0.0018285   0.0083220  -0.0018315  -0.0010484
           HY7           0.0122099  -0.0050231   0.0439465  -0.0011076   0.0006083
           HZ7          -0.0066716   0.0113041  -0.0198530   0.0015717  -0.0058332
                             OZ2         OX3         OY3         OZ3         OX4     
           OZ2           0.2567713
           OX3           0.0083965   0.7783031
           OY3          -0.0173037   0.0255640   0.0900520
           OZ3           0.0154177  -0.1322163  -0.0022111   0.1065647
           OX4           0.0200260  -0.0340581  -0.0110315  -0.0471370   0.3857848
           OY4          -0.0405420  -0.0049959   0.0192691  -0.0060150  -0.1699633
           OZ4          -0.0315569  -0.0116005  -0.0015963   0.0047827  -0.0628932
           HX5          -0.0079664  -0.0041736   0.0015251   0.0032582  -0.2098835
           HY5          -0.0010517   0.0022254  -0.0007401   0.0050788   0.1671068
           HZ5          -0.0006359   0.0053964   0.0041177   0.0053444   0.1681842
           OX6          -0.0027203  -0.0110653  -0.0437751   0.0284923   0.0099007
           OY6           0.0169364  -0.0137747  -0.0045031   0.0152040  -0.0007568
           OZ6           0.0208915   0.0150284   0.0215366   0.0079776  -0.0050850
           HX7           0.0021851  -0.0052380  -0.0000832  -0.0017770   0.0020096
           HY7          -0.0052528   0.0005408  -0.0004807  -0.0033637  -0.0002113
           HZ7          -0.0002470  -0.0017692  -0.0036848   0.0038235   0.0008621
                             OY4         OZ4         HX5         HY5         HZ5     
           OY4           0.2608546
           OZ4           0.2505194   0.5857260
           HX5           0.1882112   0.2112119   0.1968966
           HY5          -0.1744457  -0.2069388  -0.1718648   0.1771051
           HZ5          -0.1892469  -0.2560796  -0.1843828   0.2104960   0.2863098
           OX6           0.0138615  -0.0218472  -0.0024323   0.0007543  -0.0006938
           OY6           0.0062255   0.0094964   0.0008519  -0.0029668   0.0002433
           OZ6           0.0381031  -0.0465240  -0.0016018   0.0036232   0.0023947
           HX7          -0.0020169   0.0024794   0.0002830   0.0001365  -0.0004036
           HY7          -0.0023463   0.0053515   0.0001007  -0.0008576   0.0008056
           HZ7           0.0011631   0.0029719  -0.0001068  -0.0001591  -0.0003418
                             OX6         OY6         OZ6         HX7         HY7     
           OX6           0.1910073
           OY6           0.0644097   0.3367357
           OZ6           0.1909221  -0.1297846   0.6683718
           HX7          -0.0972708  -0.0002715  -0.2176128   0.0912027
           HY7          -0.0166446  -0.0363304  -0.0067590   0.0051121   0.0444297
           HZ7          -0.2006930   0.0319381  -0.5053722   0.2068068  -0.0347282
                             HZ7     
           HZ7           0.5190187


 Atomic Masses
   1-  7   31.972070   15.994910   15.994910   15.994910    1.007825   15.994910    1.007825

 Mass weighted Second Derivative Matrix
                             SX1         SY1         SZ1         OX2         OY2     
           SX1           0.0379821
           SY1          -0.0053357   0.0294586
           SZ1          -0.0058337   0.0061858   0.0271629
           OX2          -0.0114953   0.0101344   0.0066003   0.0153098
           OY2           0.0102044  -0.0206447  -0.0102502  -0.0159010   0.0316780
           OZ2           0.0065212  -0.0099815  -0.0115257  -0.0104652   0.0170638
           OX3          -0.0311340  -0.0002772   0.0051634  -0.0012320  -0.0002057
           OY3          -0.0005591  -0.0050459  -0.0000380   0.0025285   0.0006571
           OZ3           0.0052431  -0.0000431  -0.0063638   0.0019264  -0.0004825
           OX4          -0.0076423   0.0000967  -0.0032704   0.0011921   0.0007921
           OY4          -0.0006432  -0.0046244  -0.0023871  -0.0006597  -0.0003114
           OZ4          -0.0046344  -0.0017230  -0.0114673  -0.0007845  -0.0011171
           HX5           0.0036602  -0.0025991  -0.0035959  -0.0003654  -0.0010137
           HY5           0.0004266  -0.0000432  -0.0019464  -0.0001942   0.0005355
           HZ5           0.0025858  -0.0045889  -0.0065167  -0.0006921  -0.0000914
           OX6          -0.0048267  -0.0016769   0.0002892   0.0011886   0.0012076
           OY6          -0.0021053  -0.0111012   0.0024749  -0.0001781  -0.0030084
           OZ6           0.0007639   0.0036540  -0.0065331   0.0000671  -0.0005846
           HX7           0.0019105  -0.0003221   0.0014661  -0.0004562  -0.0002611
           HY7           0.0021510  -0.0008849   0.0077419  -0.0002759   0.0001515
           HZ7          -0.0011753   0.0019914  -0.0034974   0.0003915  -0.0014528
                             OZ2         OX3         OY3         OZ3         OX4     
           OZ2           0.0160533
           OX3           0.0005249   0.0486594
           OY3          -0.0010818   0.0015983   0.0056300
           OZ3           0.0009639  -0.0082661  -0.0001382   0.0066624
           OX4           0.0012520  -0.0021293  -0.0006897  -0.0029470   0.0241192
           OY4          -0.0025347  -0.0003123   0.0012047  -0.0003761  -0.0106261
           OZ4          -0.0019729  -0.0007253  -0.0000998   0.0002990  -0.0039321
           HX5          -0.0019842  -0.0010395   0.0003799   0.0008115  -0.0522751
           HY5          -0.0002619   0.0005543  -0.0001843   0.0012650   0.0416208
           HZ5          -0.0001584   0.0013441   0.0010256   0.0013311   0.0418892
           OX6          -0.0001701  -0.0006918  -0.0027368   0.0017813   0.0006190
           OY6           0.0010589  -0.0008612  -0.0002815   0.0009506  -0.0000473
           OZ6           0.0013061   0.0009396   0.0013465   0.0004988  -0.0003179
           HX7           0.0005442  -0.0013046  -0.0000207  -0.0004426   0.0005005
           HY7          -0.0013083   0.0001347  -0.0001197  -0.0008378  -0.0000526
           HZ7          -0.0000615  -0.0004407  -0.0009178   0.0009523   0.0002147
                             OY4         OZ4         HX5         HY5         HZ5     
           OY4           0.0163086
           OZ4           0.0156624   0.0366195
           HX5           0.0468772   0.0526060   0.1953678
           HY5          -0.0434487  -0.0515417  -0.1705304   0.1757300
           HZ5          -0.0471352  -0.0637810  -0.1829512   0.2088617   0.2840868
           OX6           0.0008666  -0.0013659  -0.0006058   0.0001879  -0.0001728
           OY6           0.0003892   0.0005937   0.0002122  -0.0007389   0.0000606
           OZ6           0.0023822  -0.0029087  -0.0003990   0.0009024   0.0005964
           HX7          -0.0005023   0.0006175   0.0002808   0.0001354  -0.0004004
           HY7          -0.0005844   0.0013329   0.0000999  -0.0008509   0.0007994
           HZ7           0.0002897   0.0007402  -0.0001060  -0.0001579  -0.0003391
                             OX6         OY6         OZ6         HX7         HY7     
           OX6           0.0119418
           OY6           0.0040269   0.0210527
           OZ6           0.0119364  -0.0081141   0.0417865
           HX7          -0.0242270  -0.0000676  -0.0542002   0.0904945
           HY7          -0.0041456  -0.0090487  -0.0016834   0.0050724   0.0440847
           HZ7          -0.0499860   0.0079547  -0.1258716   0.2052011  -0.0344586
                             HZ7     
           HZ7           0.5149889


 Mass Weighted 2nd Derivative Matrix Eigenvalues
   1- 10   -0.000385    0.000000    0.000000    0.000000    0.000000    0.000000    0.000000    0.003584    0.006971    0.008105
  11- 20    0.012582    0.013306    0.014384    0.033718    0.037929    0.057006    0.058324    0.066652    0.090014    0.635733
  21- 21    0.637254

 Mass Weighted 2nd Derivative Matrix Eigenvectors
              1             2             3             4             5             6             7             8
    1   -0.04942887    0.54029190    0.19436469   -0.00169534    0.00057989   -0.01396728    0.02771821   -0.10123014
    2    0.04689013   -0.09099320    0.17300108    0.23377694    0.01867474   -0.02535039    0.48386467   -0.05455244
    3    0.02233200    0.01920990   -0.01567647    0.08826189    0.16120537    0.54473092   -0.01371758    0.03415145
    4   -0.03629761    0.57266863   -0.24572640    0.00661600   -0.21700231    0.02192519    0.16843451   -0.00185930
    5    0.11780647    0.02482717   -0.07265803   -0.07190326    0.05257781   -0.02564921    0.53440703   -0.01315059
    6   -0.15568303    0.05599110   -0.07232828    0.43472346   -0.15146976    0.42714154   -0.16499413    0.05117146
    7    0.01824786    0.38144280    0.13180519   -0.00043389    0.10661793   -0.03486552    0.01454403   -0.08373269
    8   -0.08729221   -0.28540358    0.59079021    0.24963503   -0.05256401    0.01597159    0.13230762   -0.09348702
    9    0.19579414   -0.02344971    0.03052215    0.07909924    0.65045134    0.26187376   -0.06745799   -0.16028558
   10   -0.03855515    0.30378631    0.26731839   -0.00130326    0.50260009   -0.12034884   -0.05926747    0.10935028
   11    0.04893661    0.09375054   -0.19672179    0.64426728    0.02621510   -0.05799167    0.20730281   -0.08403455
   12    0.02168944    0.02869449   -0.02508269   -0.03007058   -0.18113380    0.45740642    0.06233780   -0.07527138
   13   -0.11195722    0.05093609    0.11632864   -0.00117552    0.18029708   -0.04039205   -0.03573573    0.41526796
   14   -0.19362633    0.00608083   -0.01099567    0.21566768   -0.00159808   -0.01326696    0.01045668    0.70800768
   15    0.09144708    0.00063184    0.00277359   -0.05315029    0.00644311    0.10525923    0.03287274   -0.30162385
   16   -0.03861394    0.17798849    0.58643556   -0.01386509   -0.33607938    0.09040073   -0.11552221   -0.05563327
   17   -0.00515811   -0.02721616    0.03663118   -0.08576801    0.03922011   -0.01667874    0.50280324    0.10216475
   18   -0.03037719   -0.00967711    0.03231599   -0.42399681    0.00830168    0.43402630    0.23512766    0.22854846
   19    0.76969350    0.04933343    0.14325599   -0.00389580   -0.17014831    0.04245641   -0.02191884    0.28188357
   20   -0.36644529   -0.02695621    0.04926435   -0.10086257    0.00934951    0.00145129    0.15310284   -0.04815053
   21   -0.34241427   -0.00511976    0.01127664   -0.10930314    0.03741576    0.10101950    0.05713560   -0.06666722
              9            10            11            12            13            14            15            16
    1   -0.00248079   -0.04046589   -0.26766710   -0.31452491   -0.16388369   -0.18535650    0.14502130    0.00267281
    2   -0.07593785    0.03162333    0.22269011   -0.00347186   -0.37105304   -0.39711473   -0.24047109   -0.14469330
    3   -0.04491385   -0.02233538    0.25163207   -0.30314120    0.13808550    0.02043863    0.57276590    0.18517180
    4   -0.34147038   -0.08395575   -0.03447388    0.38434327    0.32892751    0.15089361   -0.04204123   -0.10765675
    5   -0.13806803   -0.27050566    0.39156674    0.02301295    0.21645128   -0.16269695    0.06592798    0.16826193
    6   -0.22755156    0.37407281    0.04368390    0.32744755   -0.26273524   -0.15466383   -0.02309031    0.04817031
    7    0.02170594   -0.10175249   -0.26883800   -0.12437318   -0.20321463   -0.26188521    0.03733963    0.21468591
    8   -0.38724638   -0.00709240   -0.36908716   -0.03085612    0.42149426    0.04481624    0.02101481    0.02357936
    9    0.06432111   -0.39836574   -0.18919631    0.44052283   -0.07996143    0.04182853   -0.06996369   -0.08737141
   10   -0.06126381    0.41661562    0.29284824   -0.12123162    0.14093191    0.24482040   -0.28207634   -0.04853652
   11    0.55532720    0.09915410   -0.08343777   -0.12366666    0.29820711    0.10319790   -0.06221924   -0.01246588
   12   -0.09661774   -0.27318287   -0.00560939   -0.39719148   -0.14702998    0.39695932   -0.53869741   -0.02426210
   13   -0.13378211    0.01894636    0.20131657    0.00673554   -0.02106055   -0.00300417   -0.01832621    0.05218107
   14    0.04145212   -0.35256922   -0.08804714   -0.06562917   -0.03867503    0.00587832   -0.04764768   -0.02107873
   15   -0.04111963    0.17199086    0.15934669   -0.04623038    0.01000371    0.06912859   -0.06680740    0.06015616
   16    0.41001899   -0.21366712    0.35975316    0.28191539   -0.02963426    0.12266208    0.10376627   -0.15136849
   17    0.02221891    0.21500852   -0.21787560    0.09824777   -0.38755575    0.54175310    0.36618954   -0.17097192
   18    0.30518106    0.28789131   -0.24696918    0.06489601    0.27407825   -0.31052994   -0.15839466   -0.17956584
   19    0.03226135    0.14029148   -0.08521292    0.08898782   -0.00008674    0.02519420   -0.06940726    0.30276413
   20    0.17817851    0.02878812   -0.05541056    0.21769372   -0.05691350    0.13108067   -0.15524751    0.80257009
   21    0.11349456   -0.00800649    0.00928085    0.01799530    0.07134646   -0.07905083   -0.01144450   -0.13493528
             17            18            19            20            21
    1   -0.02494740   -0.34681218    0.53035834   -0.00043716   -0.00008207
    2    0.02002065   -0.36842848   -0.31653005    0.00009051    0.00200158
    3   -0.04368375   -0.20528271   -0.28878402   -0.00364861    0.00001751
    4    0.08196085   -0.20211884   -0.26441532    0.00003781    0.00022253
    5   -0.18574884    0.37487455    0.39844282   -0.00021601   -0.00305602
    6   -0.13699660    0.24859981    0.25681818    0.00187627   -0.00193112
    7    0.10381273    0.59684107   -0.44051308    0.00072551   -0.00310924
    8    0.03047444    0.03901276    0.00267855   -0.00080486   -0.00120088
    9    0.03166507   -0.08857835    0.09903868    0.00138003   -0.00018533
   10   -0.30162202    0.04465966   -0.06181956    0.09305980   -0.08516405
   11    0.12895916    0.04804307    0.03219875   -0.09594012    0.08769722
   12   -0.01969936    0.08463198    0.01188884   -0.11689285    0.11180589
   13    0.64864350    0.02617791    0.12588976   -0.37687931    0.34903114
   14   -0.02615358   -0.00854488    0.00133917    0.38192302   -0.35401112
   15    0.62577009    0.04410247    0.11991172    0.46696700   -0.43346792
   16   -0.00537482    0.06689367   -0.01781544   -0.06062416   -0.06633152
   17    0.01462244    0.11753328    0.01896801    0.00924177    0.01138727
   18    0.02612669    0.02510852    0.01169833   -0.15183652   -0.16610821
   19   -0.02519985   -0.08970037    0.01247406    0.24708327    0.26646043
   20   -0.04002867   -0.22479346   -0.02034695   -0.03297634   -0.03503744
   21    0.01428917    0.03745036   -0.00499909    0.61117696    0.65813079

 Imaginary Vibration  Wavenumber
        Nr             [1/cm] 
        1              100.87

   Low Vibration      Wavenumber
        Nr             [1/cm] 
        1                0.00
        2                0.00
        3                0.00
        4                0.00
        5                0.00
        6                0.00

     Vibration        Wavenumber
        Nr             [1/cm] 
        1              307.74
        2              429.19
        3              462.80
        4              576.61
        5              592.97
        6              616.52
        7              943.91
        8             1001.13
        9             1227.33
       10             1241.45
       11             1327.13
       12             1542.26
       13             4098.66
       14             4103.56

 FREQUENCIES * CALCULATION OF NORMAL MODES FOR HF-SCF


 Atomic Coordinates

  Nr  Atom  Charge       X              Y              Z

   1   S    16.00   -0.114318322   -0.205439454   -0.068753210
   2   O     8.00    1.095052103   -2.178860838   -1.351750722
   3   O     8.00   -2.725935633   -0.282144973    0.438915589
   4   O     8.00    1.340858782    0.277184040    2.428419057
   5   H     1.00    0.375152856    1.241802398    3.587505737
   6   O     8.00    0.505975771    2.363316821   -1.411038067
   7   H     1.00   -0.175836282    2.426808163   -3.065608735

 Gradient norm at reference geometry: 0.54950D-03

 ?WARNING: GRADIENT NORM NOT ZERO!

 Normal Modes

                              1 A         2 A         3 A         4 A         5 A  
 Wavenumbers [cm-1]          307.74      429.19      462.80      576.61      592.97
 Intensities [km/mol]          0.00        0.00        0.00        0.00        0.00
 Intensities [relative]        0.00        0.00        0.00        0.00        0.00
           SX1             -0.01790    -0.00044    -0.00716    -0.04734    -0.05562
           SY1             -0.00965    -0.01343     0.00559     0.03938    -0.00061
           SZ1              0.00604    -0.00794    -0.00395     0.04450    -0.05361
           OX2             -0.00046    -0.08538    -0.02099    -0.00862     0.09610
           OY2             -0.00329    -0.03452    -0.06764     0.09791     0.00575
           OZ2              0.01279    -0.05690     0.09353     0.01092     0.08187
           OX3             -0.02094     0.00543    -0.02544    -0.06722    -0.03110
           OY3             -0.02338    -0.09683    -0.00177    -0.09229    -0.00772
           OZ3             -0.04008     0.01608    -0.09961    -0.04731     0.11015
           OX4              0.02734    -0.01532     0.10417     0.07322    -0.03031
           OY4             -0.02101     0.13885     0.02479    -0.02086    -0.03092
           OZ4             -0.01882    -0.02416    -0.06831    -0.00140    -0.09931
           HX5              0.41365    -0.13326     0.01887     0.20053     0.00671
           HY5              0.70525     0.04129    -0.35120    -0.08770    -0.06537
           HZ5             -0.30045    -0.04096     0.17132     0.15873    -0.04605
           OX6             -0.01391     0.10252    -0.05343     0.08995     0.07049
           OY6              0.02555     0.00556     0.05376    -0.05448     0.02457
           OZ6              0.05715     0.07631     0.07198    -0.06175     0.01623
           HX7              0.28079     0.03214     0.13975    -0.08488     0.08864
           HY7             -0.04796     0.17749     0.02868    -0.05520     0.21685
           HZ7             -0.06641     0.11305    -0.00798     0.00924     0.01793

                              6 A         7 A         8 A         9 A        10 A  
 Wavenumbers [cm-1]          616.52      943.91     1001.13     1227.33     1241.45
 Intensities [km/mol]          0.00        0.00        0.00        0.00        0.00
 Intensities [relative]        0.00        0.00        0.00        0.00        0.00
           SX1             -0.02898    -0.03278     0.02565     0.00047    -0.00441
           SY1             -0.06562    -0.07023    -0.04253    -0.02559     0.00354
           SZ1              0.02442     0.00361     0.10130     0.03275    -0.00773
           OX2              0.08224     0.03773    -0.01051    -0.02692     0.02049
           OY2              0.05412    -0.04068     0.01648     0.04207    -0.04644
           OZ2             -0.06569    -0.03867    -0.00577     0.01204    -0.03425
           OX3             -0.05081    -0.06548     0.00934     0.05368     0.02596
           OY3              0.10539     0.01121     0.00525     0.00590     0.00762
           OZ3             -0.01999     0.01046    -0.01749    -0.02185     0.00792
           OX4              0.03524     0.06121    -0.07053    -0.01214    -0.07542
           OY4              0.07456     0.02580    -0.01556    -0.00312     0.03224
           OZ4             -0.03676     0.09926    -0.13470    -0.00607    -0.00493
           HX5             -0.02098    -0.00299    -0.01825     0.05198     0.64612
           HY5             -0.03852     0.00586    -0.04746    -0.02100    -0.02605
           HZ5              0.00996     0.06886    -0.06655     0.05992     0.62334
           OX6             -0.00741     0.03067     0.02595    -0.03785    -0.00134
           OY6             -0.09690     0.13546     0.09156    -0.04275     0.00366
           OZ6              0.06853    -0.07764    -0.03960    -0.04490     0.00653
           HX7             -0.00009     0.02510    -0.06914     0.30159    -0.02510
           HY7             -0.05669     0.13057    -0.15464     0.79945    -0.03987
           HZ7              0.07107    -0.07874    -0.01140    -0.13441     0.01423

                             11 A        12 A        13 A        14 A  
 Wavenumbers [cm-1]         1327.13     1542.26     4098.66     4103.56
 Intensities [km/mol]          0.00        0.00        0.00        0.00
 Intensities [relative]        0.00        0.00        0.00        0.00
           SX1             -0.06134     0.09380    -0.00008    -0.00001
           SY1             -0.06516    -0.05598     0.00002     0.00035
           SZ1             -0.03631    -0.05107    -0.00065     0.00000
           OX2             -0.05054    -0.06611     0.00001     0.00006
           OY2              0.09373     0.09963    -0.00005    -0.00076
           OZ2              0.06216     0.06421     0.00047    -0.00048
           OX3              0.14923    -0.11015     0.00018    -0.00078
           OY3              0.00975     0.00067    -0.00020    -0.00030
           OZ3             -0.02215     0.02476     0.00035    -0.00005
           OX4              0.01117    -0.01546     0.02327    -0.02129
           OY4              0.01201     0.00805    -0.02399     0.02193
           OZ4              0.02116     0.00297    -0.02923     0.02796
           HX5              0.02608     0.12540    -0.37541     0.34767
           HY5             -0.00851     0.00133     0.38044    -0.35263
           HZ5              0.04393     0.11945     0.46515    -0.43178
           OX6              0.01673    -0.00445    -0.01516    -0.01659
           OY6              0.02939     0.00474     0.00231     0.00285
           OZ6              0.00628     0.00293    -0.03797    -0.04153
           HX7             -0.08935     0.01243     0.24612     0.26542
           HY7             -0.22392    -0.02027    -0.03285    -0.03490
           HZ7              0.03730    -0.00498     0.60880     0.65557


 Normal Modes of imaginary frequencies

                                  1
 Wavenumbers [cm-1]          100.87
 Intensities [km/mol]          0.00
 Intensities [relative]        0.00
           SX1             -0.00874
           SY1              0.00829
           SZ1              0.00395
           OX2             -0.00908
           OY2              0.02946
           OZ2             -0.03893
           OX3              0.00456
           OY3             -0.02183
           OZ3              0.04896
           OX4             -0.00964
           OY4              0.01224
           OZ4              0.00542
           HX5             -0.11152
           HY5             -0.19287
           HZ5              0.09109
           OX6             -0.00966
           OY6             -0.00129
           OZ6             -0.00760
           HX7              0.76670
           HY7             -0.36502
           HZ7             -0.34108


 Normal Modes of low/zero frequencies

                                  1           2           3           4           5
 Wavenumbers [cm-1]            0.00        0.00        0.00        0.00        0.00
 Intensities [km/mol]          0.00        0.00        0.00        0.00        0.00
 Intensities [relative]        0.00        0.00        0.00        0.00        0.00
           SX1              0.09555     0.03437    -0.00030     0.00010    -0.00247
           SY1             -0.01609     0.03060     0.04134     0.00330    -0.00448
           SZ1              0.00340    -0.00277     0.01561     0.02851     0.09634
           OX2              0.14319    -0.06144     0.00165    -0.05426     0.00548
           OY2              0.00621    -0.01817    -0.01798     0.01315    -0.00641
           OZ2              0.01400    -0.01808     0.10870    -0.03787     0.10680
           OX3              0.09538     0.03296    -0.00011     0.02666    -0.00872
           OY3             -0.07136     0.14772     0.06242    -0.01314     0.00399
           OZ3             -0.00586     0.00763     0.01978     0.16264     0.06548
           OX4              0.07596     0.06684    -0.00033     0.12567    -0.03009
           OY4              0.02344    -0.04919     0.16109     0.00655    -0.01450
           OZ4              0.00717    -0.00627    -0.00752    -0.04529     0.11437
           HX5              0.05074     0.11588    -0.00117     0.17960    -0.04023
           HY5              0.00606    -0.01095     0.21483    -0.00159    -0.01322
           HZ5              0.00063     0.00276    -0.05294     0.00642     0.10485
           OX6              0.04450     0.14663    -0.00347    -0.08403     0.02260
           OY6             -0.00681     0.00916    -0.02145     0.00981    -0.00417
           OZ6             -0.00242     0.00808    -0.10602     0.00208     0.10852
           HX7              0.04914     0.14270    -0.00388    -0.16949     0.04229
           HY7             -0.02685     0.04907    -0.10047     0.00931     0.00145
           HZ7             -0.00510     0.01123    -0.10888     0.03727     0.10063

                                  6
 Wavenumbers [cm-1]            0.00
 Intensities [km/mol]          0.00
 Intensities [relative]        0.00
           SX1              0.00490
           SY1              0.08557
           SZ1             -0.00243
           OX2              0.04212
           OY2              0.13362
           OZ2             -0.04126
           OX3              0.00364
           OY3              0.03308
           OZ3             -0.01687
           OX4             -0.01482
           OY4              0.05183
           OZ4              0.01559
           HX5             -0.03560
           HY5              0.01042
           HZ5              0.03274
           OX6             -0.02889
           OY6              0.12572
           OZ6              0.05879
           HX7             -0.02183
           HY7              0.15251
           HZ7              0.05691


 Frequencies dumped to record   5400.2

 Zero point energy:  0.04208062 [H]     9235.63 [1/CM]      110.48 [KJ/MOL]
 Frequency information read from record  5400.2


 **********************************************************************************************************************************
 DATASETS  * FILE   NREC   LENGTH (MB)   RECORD NAMES
              1      18       29.11       500      610      700      900      950      970     1000      129      960     1100   
                                          VAR    BASINP    GEOM    SYMINP    ZMAT    AOBASIS   BASIS     P2S    ABASIS      S 
                                         1400     1410     1200     1210     1080     1600     1650     1700   
                                           T        V       H0       H01     AOSYM     SMH    MOLCAS    OPER   

              2       7        0.80       700     1000      520     2100     5300     5450     5400   
                                         GEOM     BASIS   MCVARS     RHF     HESS     NMOD     FREQ   

              4       5        3.94      4100     4000     4200     4300     4400   

 PROGRAMS   *        TOTAL      FREQ      OPTG    HF-SCF       INT
 CPU TIMES  *      1197.21    565.39    579.86     46.63      4.52
 REAL TIME  *       988.63 SEC
 DISK USED  *        30.65 MB (local),      432.30 MB (total)
 SF USED    *         3.94 MB
 GA USED    *         0.00 MB       (max)       0.00 MB       (current)
 **********************************************************************************************************************************

 Dump information in style MOLDEN to sulfuricacid.molden                                                             

 Molecular orbitals read from record     2100.2  Type=RHF/CANONICAL  
 Occupation numbers read from record     2100.2  Type=RHF/RHF  
 Orbital energies read from record       2100.2  Type=RHF/CANONICAL  
 Redundancy group numbers read from rec  2100.2  Type=RHF/RHF  

 DUMP ORBITAL  1.1 AS ORBITAL    1  occ=    2.0000  eig=  -92.2788  GROUP=   2
 DUMP ORBITAL  2.1 AS ORBITAL    2  occ=    2.0000  eig=  -20.6581  GROUP=   2
 DUMP ORBITAL  3.1 AS ORBITAL    3  occ=    2.0000  eig=  -20.6527  GROUP=   2
 DUMP ORBITAL  4.1 AS ORBITAL    4  occ=    2.0000  eig=  -20.5792  GROUP=   2
 DUMP ORBITAL  5.1 AS ORBITAL    5  occ=    2.0000  eig=  -20.5788  GROUP=   2
 DUMP ORBITAL  6.1 AS ORBITAL    6  occ=    2.0000  eig=   -9.2495  GROUP=   2
 DUMP ORBITAL  7.1 AS ORBITAL    7  occ=    2.0000  eig=   -6.9354  GROUP=   2
 DUMP ORBITAL  8.1 AS ORBITAL    8  occ=    2.0000  eig=   -6.9351  GROUP=   2
 DUMP ORBITAL  9.1 AS ORBITAL    9  occ=    2.0000  eig=   -6.9350  GROUP=   2
 DUMP ORBITAL 10.1 AS ORBITAL   10  occ=    2.0000  eig=   -1.6036  GROUP=   2
 DUMP ORBITAL 11.1 AS ORBITAL   11  occ=    2.0000  eig=   -1.4614  GROUP=   2
 DUMP ORBITAL 12.1 AS ORBITAL   12  occ=    2.0000  eig=   -1.4349  GROUP=   2
 DUMP ORBITAL 13.1 AS ORBITAL   13  occ=    2.0000  eig=   -1.4092  GROUP=   2
 DUMP ORBITAL 14.1 AS ORBITAL   14  occ=    2.0000  eig=   -0.9597  GROUP=   2
 DUMP ORBITAL 15.1 AS ORBITAL   15  occ=    2.0000  eig=   -0.8468  GROUP=   2
 DUMP ORBITAL 16.1 AS ORBITAL   16  occ=    2.0000  eig=   -0.7764  GROUP=   2
 DUMP ORBITAL 17.1 AS ORBITAL   17  occ=    2.0000  eig=   -0.7438  GROUP=   2
 DUMP ORBITAL 18.1 AS ORBITAL   18  occ=    2.0000  eig=   -0.6907  GROUP=   2
 DUMP ORBITAL 19.1 AS ORBITAL   19  occ=    2.0000  eig=   -0.6709  GROUP=   2
 DUMP ORBITAL 20.1 AS ORBITAL   20  occ=    2.0000  eig=   -0.6194  GROUP=   2
 DUMP ORBITAL 21.1 AS ORBITAL   21  occ=    2.0000  eig=   -0.6154  GROUP=   2
 DUMP ORBITAL 22.1 AS ORBITAL   22  occ=    2.0000  eig=   -0.5736  GROUP=   2
 DUMP ORBITAL 23.1 AS ORBITAL   23  occ=    2.0000  eig=   -0.5427  GROUP=   2
 DUMP ORBITAL 24.1 AS ORBITAL   24  occ=    2.0000  eig=   -0.5211  GROUP=   2
 DUMP ORBITAL 25.1 AS ORBITAL   25  occ=    2.0000  eig=   -0.5002  GROUP=   2

 Total charge:      50.000000
 Frequency information read from record  5400.2

 **********************************************************************************************************************************

 HF/6-311G(D,P)//HF/6-311G(D,P) energy=   -698.144706624042

    OPTG(HF-SCF)          HF-SCF
   -698.14470662   -698.00134805
 **********************************************************************************************************************************
 Molpro calculation terminated
