
 Working directory              : /tmp/lme/molpro.v7OlZ0KzQa/
 Global scratch directory       : /tmp/lme/molpro.v7OlZ0KzQa/
 Wavefunction directory         : /home/lme/wfu/
 Main file repository           : /tmp/lme/molpro.v7OlZ0KzQa/

 id        : liedlgroup

 Nodes     nprocs
 sv1-c724     6
 GA implementation: MPI file
 GA implementation (serial work in mppx): MPI file

 Using customized tuning parameters: mindgm=1; mindgv=20; mindgc=4; mindgr=1; noblas=0; minvec=7
 default implementation of scratch files=sf  


 Variables initialized (1025), CPU time= 0.01 sec
 memory, 200, m                                                                  ! Memory Requirements
 gthresh, optgrad=1.d-7,twoint=1.d-14,prefac=1.d-16                            ! Guntram Rezept um numerischen Schmutz zu entfernen
 orient,mass
 geometry = {
 C,  -1.888896,  -0.179692,   0.000000
 O,  -1.493280,   1.073689,   0.000000
 O,  -1.170435,  -1.166590,   0.000000
 H,  -2.979488,  -0.258829,   0.000000
 H,  -0.498833,   1.107195,   0.000000
 C,   1.888896,   0.179692,   0.000000
 O,   1.493280,  -1.073689,   0.000000
 O,   1.170435,   1.166590,   0.000000
 H,   2.979488,   0.258829,   0.000000
 H,   0.498833,  -1.107195,   0.000000
 }
 
 mass, iso
 basis=6-311g(d,p)
 
 {hf
 start,atden}
 
 optg
 {frequencies, symm=auto, print=0,analytical}
 put,molden,formic_acid_dimer.molden
 Commands initialized (840), CPU time= 0.01 sec, 684 directives.
 Default parameters read. Elapsed time= 0.10 sec

 Checking input...
 Passed
1


                                         ***  PROGRAM SYSTEM MOLPRO  ***
                                       Copyright, TTI GmbH Stuttgart, 2015
                                    Version 2022.3 linked Wed Nov 30 12:40:34 2022


 **********************************************************************************************************************************
 LABEL *                                                                                 
  (6 PROC) 64 bit mpp version                                                            DATE: 21-Aug-25          TIME: 20:40:09  
 **********************************************************************************************************************************

 SHA1:             e31ec9a5ea85254ab76f59d122cbdd51c71cf98b
 **********************************************************************************************************************************

 Memory per process:       200 MW
 Total memory per node:   1200 MW

 GA preallocation disabled
 GA check disabled

 Variable memory set to 200.0 MW


 THRESHOLDS:

 ZERO    =  1.00D-12  ONEINT  =  1.00D-12  TWOINT  =  1.00D-14  PREFAC  =  1.00D-16  XXXXXX  =  1.00D-09  EORDER  =  1.00D-04
 ENERGY  =  0.00D+00  ETEST   =  0.00D+00  EDENS   =  0.00D+00  THRDEDEF=  1.00D-06  GRADIENT=  1.00D-05  STEP    =  1.00D-03
 ORBITAL =  1.00D-05  CIVEC   =  1.00D-05  COEFF   =  1.00D-04  PRINTCI =  5.00D-02  PUNCHCI =  9.90D+01  OPTGRAD =  1.00D-07
 OPTENERG=  1.00D-06  OPTSTEP =  3.00D-04  THRGRAD =  1.00D-10  COMPRESS=  1.00D-11  VARMIN  =  1.00D-07  VARMAX  =  1.00D-03
 THRDOUB =  0.00D+00  THRDIV  =  1.00D-05  THRRED  =  1.00D-07  THRPSP  =  1.00D+00  THRDC   =  1.00D-10  THRCS   =  1.00D-10
 THRNRM  =  1.00D-08  THREQ   =  0.00D+00  THRDE   =  1.00D+00  THRREF  =  1.00D-05  SPARFAC =  1.00D+00  THRDLP  =  1.00D-07
 THRDIA  =  1.00D-10  THRDLS  =  1.00D-07  THRGPS  =  0.00D+00  THRKEX  =  0.00D+00  THRDIS  =  2.00D-01  THRVAR  =  1.00D-10
 THRLOC  =  1.00D-06  THRGAP  =  1.00D-06  THRLOCT = -1.00D+00  THRGAPT = -1.00D+00  THRORB  =  1.00D-06  THRMLTP =  0.00D+00
 THRCPQCI=  1.00D-10  KEXTA   =  0.00D+00  THRCOARS=  0.00D+00  SYMTOL  =  1.00D-06  GRADTOL =  1.00D-06  THROVL  =  1.00D-08
 THRORTH =  1.00D-08  THRDLOVL= -1.00D+00  GRID    =  1.00D-06  GRIDMAX =  1.00D-03  DTMAX   =  0.00D+00  THROCCDE=  1.00D-01
 THROCCDE=  1.00D-01  THRPRINT=  2.50D-01

 ZCENTRE=MASS


 Geometry recognized as XYZ



 Using masses of most abundant isotopes

 **********************************************************************************************************************************
 SETTING BASIS          =    6-311G(D,P)


 Recomputing integrals since basis changed


 Using spherical harmonics

 Library entry C      S 6-311G               selected for orbital group  1
 Library entry C      P 6-311G               selected for orbital group  1
 Library entry C      D 6-311G*              selected for orbital group  1
 Library entry O      S 6-311G               selected for orbital group  2
 Library entry O      P 6-311G               selected for orbital group  2
 Library entry O      D 6-311G*              selected for orbital group  2
 Library entry H      S 6-311G               selected for orbital group  3
 Library entry H      P 6-311G**             selected for orbital group  3


 PROGRAM * SEWARD (Integral evaluation for generally contracted gaussian basis sets)     Author: Roland Lindh, 1990

 Geometry written to block  1 of record 700

 Orientation using atomic masses  
 Molecule type: Asymmetric top,     Order of principal axis = 2
 Symmetry elements: X,YZ
 Rotational constants:       1.6680411      6.0316413      2.3056708 GHz

 Point group  C2h 



 ATOMIC COORDINATES

 NR  ATOM    CHARGE       X              Y              Z

   1  C       6.00    0.000000000   -3.571853071   -0.313807347
   2  C       6.00    0.000000000    3.571853071    0.313807347
   3  O       8.00    0.000000000   -2.807178523    2.049284154
   4  O       8.00    0.000000000    2.807178523   -2.049284154
   5  O       8.00    0.000000000   -2.227648873   -2.188520964
   6  O       8.00    0.000000000    2.227648873    2.188520964
   7  H       1.00    0.000000000   -5.633798552   -0.448481999
   8  H       1.00    0.000000000    5.633798552    0.448481999
   9  H       1.00    0.000000000   -0.927538147    2.099041761
  10  H       1.00    0.000000000    0.927538147   -2.099041761

 Bond lengths in Bohr (Angstrom)

 1-3  2.483732797  1-5  2.306823806  1-7  2.066338894  2-4  2.483732797  2-6  2.306823806
     ( 1.314334794)     ( 1.220718588)     ( 1.093459453)     ( 1.314334794)     ( 1.220718588)

  2- 8  2.066338894   3- 9  1.880298849   4-10  1.880298849
       ( 1.093459453)       ( 0.995011300)       ( 0.995011300)

 Bond angles

  1- 3- 9  109.44747372   2- 4-10  109.44747372   3- 1- 5  126.42767864   3- 1- 7  111.66803047

  4-2-6  126.42767864   4-2-8  111.66803047   5-1-7  121.90429089   6-2-8  121.90429089

 NUCLEAR CHARGE:                   48
 NUMBER OF PRIMITIVE AOS:         224
 NUMBER OF SYMMETRY AOS:          218
 NUMBER OF CONTRACTIONS:          132   (   49Ag  +   17Au  +   49Bu  +   17Bg  )
 NUMBER OF INNER CORE ORBITALS:     0   (    0Ag  +    0Au  +    0Bu  +    0Bg  )
 NUMBER OF OUTER CORE ORBITALS:     6   (    3Ag  +    0Au  +    3Bu  +    0Bg  )
 NUMBER OF VALENCE ORBITALS:       28   (   11Ag  +    3Au  +   11Bu  +    3Bg  )


 NUCLEAR REPULSION ENERGY  235.94662135


 Eigenvalues of metric

         1 0.750E-02 0.140E-01 0.175E-01 0.298E-01 0.316E-01 0.551E-01 0.596E-01 0.857E-01
         2 0.122E+00 0.198E+00 0.214E+00 0.361E+00 0.437E+00 0.501E+00 0.654E+00 0.844E+00
         3 0.936E-02 0.138E-01 0.177E-01 0.199E-01 0.318E-01 0.483E-01 0.619E-01 0.826E-01
         4 0.120E+00 0.206E+00 0.207E+00 0.368E+00 0.421E+00 0.501E+00 0.639E+00 0.894E+00


 Contracted 2-electron integrals neglected if value below      1.0D-14
 AO integral compression algorithm  1   Integral accuracy      1.0D-14

     88.605 MB (compressed) written to integral file ( 83.6%)

     Node minimum: 12.845 MB, node maximum: 17.039 MB


 NUMBER OF SORTED TWO-ELECTRON INTEGRALS:    1732617.     BUFFER LENGTH:  32768
 NUMBER OF SEGMENTS:   1  SEGMENT LENGTH:    1732617      RECORD LENGTH: 524288

 Memory used in sort:       2.29 MW

 SORT1 READ    13156080. AND WROTE     1691657. INTEGRALS IN      5 RECORDS. CPU TIME:     0.25 SEC, REAL TIME:     0.27 SEC
 SORT2 READ    10221901. AND WROTE    10428281. INTEGRALS IN    318 RECORDS. CPU TIME:     0.04 SEC, REAL TIME:     0.06 SEC

 Node minimum:     1729660.  Node maximum:     1748697. integrals

 OPERATOR DM      FOR CENTER  0  COORDINATES:    0.000000    0.000000    0.000000


 **********************************************************************************************************************************
 DATASETS  * FILE   NREC   LENGTH (MB)   RECORD NAMES
              1      18       28.92       500      610      700      900      950      970     1000      129      960     1100   
                                          VAR    BASINP    GEOM    SYMINP    ZMAT    AOBASIS   BASIS     P2S    ABASIS      S 
                                         1400     1410     1200     1210     1080     1600     1650     1700   
                                           T        V       H0       H01     AOSYM     SMH    MOLCAS    OPER   

 PROGRAMS   *        TOTAL       INT
 CPU TIMES  *         1.30      1.13
 REAL TIME  *         1.28 SEC
 DISK USED  *        29.36 MB (local),      367.26 MB (total)
 GA USED    *         0.00 MB       (max)       0.00 MB       (current)
 **********************************************************************************************************************************


 Program * Restricted Hartree-Fock

 Orbital guess generated from atomic densities.

 Initial occupancy:  10   2  10   2

 NELEC=   48   SYM=1   MS2= 0   THRE=1.0D-08   THRD=1.0D-06   THRG=1.0D-06  HFMA2=F  DIIS_START=2   DIIS_MAX=10   DIIS_INCORE=F

 Level shifts:    0.00 (CLOSED)    0.00 (OPEN)    0.30 (GAP_MIN)

 ITER           ETOT              DE          GRAD        DDIFF     DIIS  NEXP   TIME(IT)  TIME(TOT)  DIAG
   1     -377.51833006    -377.51833006     0.00D+00     0.80D-01     0     0       0.05      0.11    start
   2     -377.60632647      -0.08799642     0.14D-01     0.11D-01     1     0       0.03      0.14    diag
   3     -377.65495365      -0.04862717     0.93D-02     0.45D-02     2     0       0.03      0.17    diag
   4     -377.65646712      -0.00151348     0.13D-02     0.94D-03     3     0       0.03      0.20    diag
   5     -377.65673934      -0.00027221     0.54D-03     0.41D-03     4     0       0.02      0.22    diag
   6     -377.65678813      -0.00004879     0.16D-03     0.16D-03     5     0       0.04      0.26    diag
   7     -377.65679945      -0.00001133     0.68D-04     0.95D-04     6     0       0.02      0.28    diag
   8     -377.65680055      -0.00000110     0.21D-04     0.31D-04     7     0       0.04      0.32    fixocc
   9     -377.65680066      -0.00000011     0.71D-05     0.10D-04     8     0       0.03      0.35    diag
  10     -377.65680067      -0.00000001     0.20D-05     0.32D-05     9     0       0.09      0.44    diag/orth
  11     -377.65680067      -0.00000000     0.50D-06     0.67D-06     9     0       0.03      0.47    diag
  12     -377.65680067      -0.00000000     0.86D-07     0.78D-07     0     0       0.03      0.50    diag

 Final occupancy:  10   2  10   2

 !RHF STATE 1.1 Energy               -377.656800673282
  RHF One-electron energy            -987.071609539513
  RHF Two-electron energy             373.468187519854
  RHF Kinetic energy                  377.299783266943
  RHF Nuclear energy                  235.946621346377
  RHF Virial quotient                  -1.000946243338

 !RHF STATE 1.1 Dipole moment           0.00000000     0.00000000     0.00000000
 Dipole moment /Debye                   0.00000000     0.00000000     0.00000000

 Orbital energies:

           1.1          2.1          3.1          4.1          5.1          6.1          7.1          8.1          9.1         10.1
    -20.610869   -20.572009   -11.408926    -1.486248    -1.373033    -0.919004    -0.732931    -0.693936    -0.619684    -0.495600

          11.1         12.1
      0.170959     0.243831

           1.2          2.2          3.2          4.2
     -0.643797    -0.493349     0.153615     0.533584

           1.3          2.3          3.3          4.3          5.3          6.3          7.3          8.3          9.3         10.3
    -20.610869   -20.572010   -11.408926    -1.473103    -1.387424    -0.882454    -0.768959    -0.723818    -0.578773    -0.473337

          11.3         12.3
      0.173612     0.279067

           1.4          2.4          3.4          4.4
     -0.633875    -0.504686     0.159721     0.565498


 HOMO     10.3    -0.473337 =     -12.8802eV
 LUMO      3.2     0.153615 =       4.1801eV
 LUMO-HOMO         0.626952 =      17.0602eV

 Orbitals saved in record  2100.2


 **********************************************************************************************************************************
 DATASETS  * FILE   NREC   LENGTH (MB)   RECORD NAMES
              1      18       28.93       500      610      700      900      950      970     1000      129      960     1100   
                                          VAR    BASINP    GEOM    SYMINP    ZMAT    AOBASIS   BASIS     P2S    ABASIS      S 
                                         1400     1410     1200     1210     1080     1600     1650     1700   
                                           T        V       H0       H01     AOSYM     SMH    MOLCAS    OPER   

              2       4        0.60       700     1000      520     2100   
                                         GEOM     BASIS   MCVARS     RHF  

 PROGRAMS   *        TOTAL    HF-SCF       INT
 CPU TIMES  *         1.82      0.52      1.13
 REAL TIME  *         1.68 SEC
 DISK USED  *        29.97 MB (local),      370.89 MB (total)
 GA USED    *         0.00 MB       (max)       0.00 MB       (current)
 **********************************************************************************************************************************


 PROGRAM * OPT (Geometry optimization)     Authors: F. Eckert and H.-J. Werner


 BFGS update of hessian

 *** Long output written to logfile /home/lme/overlap_integral_gaussian/molpro_files/fad/fad.log ***


 Geometry optimization using default procedure for command HF-SCF

 Geometry written to block  1 of record 700

 Entering BMAT geometry-optimization, modelhes=F

 Too few internal coordinates
 BMAT failed, using natural internal coordinates

 Making model hessian for cartesian coordinates

 Entering Rational Function Geometry Optimization

 ITER.   ENERGY(OLD)    ENERGY(NEW)      DE          GRADMAX     GRADNORM    GRADRMS     STEPMAX     STEPLEN     STEPRMS   CPU-time
   1  -377.65680067  -377.66263954    -0.00583886  0.06250343  0.10052061  0.00418836  0.19206375  0.21487119  0.06794824      6.74
   2  -377.66263954  -377.66359365    -0.00095412  0.02441577  0.02892133  0.00120506  0.11877318  0.13124877  0.04150450     13.33
   3  -377.66359365  -377.66397327    -0.00037961  0.00880003  0.01183440  0.00049310  0.17563409  0.22535198  0.07126255     19.74
   4  -377.66397327  -377.66409442    -0.00012115  0.00791475  0.00986004  0.00041083  0.10613176  0.11932753  0.03773468     26.21
   5  -377.66409442  -377.66411038    -0.00001596  0.00387167  0.00574739  0.00023947  0.01500746  0.02080388  0.00657877     32.52
   6  -377.66411038  -377.66411230    -0.00000193  0.00206781  0.00221771  0.00009240  0.00114377  0.00244588  0.00077345     38.92
   7  -377.66411230  -377.66411241    -0.00000011  0.00030406  0.00035808  0.00001492  0.00209783  0.00234573  0.00074178     45.39
   8  -377.66411241  -377.66411241    -0.00000000  0.00002105  0.00003641  0.00000152  0.00021109  0.00025744  0.00008141     51.61
   9  -377.66411241  -377.66411241    -0.00000000  0.00000893  0.00000983  0.00000041  0.00003365  0.00004476  0.00001416     59.69
  10  -377.66411241  -377.66411241     0.00000000  0.00000211  0.00000249  0.00000010  0.00001368  0.00001965  0.00000621     67.72
  11  -377.66411241  -377.66411241     0.00000000  0.00000024  0.00000042  0.00000002  0.00003088  0.00003139  0.00000993     74.45
  12  -377.66411241  -377.66411241    -0.00000000  0.00000061  0.00000074  0.00000003  0.00001539  0.00001607  0.00000508     80.83
  13  -377.66411241  -377.66411241     0.00000000  0.00000031  0.00000051  0.00000002  0.00000922  0.00000932  0.00000295     87.58
  14  -377.66411241  -377.66411241     0.00000000  0.00000018  0.00000034  0.00000001  0.00000384  0.00000385  0.00000122     94.73
  15  -377.66411241  -377.66411241    -0.00000000  0.00000019  0.00000020  0.00000001  0.00000052  0.00000077  0.00000024    101.31
  16  -377.66411241  -377.66411241    -0.00000000  0.00000029  0.00000031  0.00000001  0.00000041  0.00000043  0.00000013    107.84
  17  -377.66411241  -377.66411241     0.00000000  0.00000003  0.00000005  0.00000000  0.00000358  0.00000361  0.00000114    114.16

 END OF GEOMETRY OPTIMIZATION.

 Geometry written to block  1 of record 700

 Recomputing wavefunction for reoriented structure

 Current geometry (xyz format, in Angstrom)

   10
 HF-SCF000/6-311G(D,P)  ENERGY=-377.66411241
 C          0.0000000000       -1.9394802744       -0.2266447201
 O          0.0000000000       -1.6276871756        1.0333204609
 O          0.0000000000       -1.1716944760       -1.1356630474
 H          0.0000000000       -3.0148211116       -0.3711738207
 H          0.0000000000       -0.6754192114        1.1518731370
 C          0.0000000000        1.9394802744        0.2266447201
 O          0.0000000000        1.6276871756       -1.0333204609
 O          0.0000000000        1.1716944760        1.1356630474
 H          0.0000000000        3.0148211116        0.3711738207
 H          0.0000000000        0.6754192114       -1.1518731370

 **********************************************************************************************************************************


 **********************************************************************************************************************************
 DATASETS  * FILE   NREC   LENGTH (MB)   RECORD NAMES
              1      18       28.93       500      610      700      900      950      970     1000      129      960     1100   
                                          VAR    BASINP    GEOM    SYMINP    ZMAT    AOBASIS   BASIS     P2S    ABASIS      S 
                                         1400     1410     1200     1210     1080     1600     1650     1700   
                                           T        V       H0       H01     AOSYM     SMH    MOLCAS    OPER   

              2       4        0.60       700     1000      520     2100   
                                         GEOM     BASIS   MCVARS     RHF  

 PROGRAMS   *        TOTAL      OPTG    HF-SCF       INT
 CPU TIMES  *       117.53    115.71      0.52      1.13
 REAL TIME  *        73.52 SEC
 DISK USED  *        29.97 MB (local),      381.68 MB (total)
 SF USED    *         0.08 MB
 GA USED    *         0.00 MB       (max)       0.00 MB       (current)
 **********************************************************************************************************************************


 PROGRAM * HESSIAN

 PROGRAM * MCKINLEY (Hessian of the energy)     Author: A. Bernhardsson, R. Lindh

 Orbitals from record         2100.2

 Number of closed-shell orbitals: 24 ( 10  2 10  2 )
 Number of occupied orbitals:     24 ( 10  2 10  2 )

 Number of electrons= 48     Singlet     Space symmetry=1      Wavefunction type: CLOSED          


 McKinley needed    237.50 seconds of CPU time

 Entering CPHF calculation

 CPHF needed 254 iterations for 30 perturbations.  Total CPU time:   43.06 sec


 HF-SCF hessian saved to record  5300.2

 PROGRAM * FREQUENCIES (Calculation of harmonic vibrational spectra for HF-SCF)


 Permanent Dipole Moment [debye]
 1-3    0.000000    0.000000    0.000000

 Dipole Moment Norm    0.0000000 [debye]

 Dipole Moment Derivatives [debye/ang]
              1             2             3             4             5             6             7             8
    1    0.00000000    0.00000000    0.00000000    0.00000000    0.00000000    0.00000000    0.00000000    0.00000000
    2    0.00000000    0.00000000    0.00000000    0.00000000    0.00000000    0.00000000    0.00000000    0.00000000
    3    0.00000000    0.00000000    0.00000000    0.00000000    0.00000000    0.00000000    0.00000000    0.00000000
              9            10            11            12            13            14            15            16
    1    0.00000000    0.00000000    0.00000000    0.00000000    0.00000000    0.00000000    0.00000000    0.00000000
    2    0.00000000    0.00000000    0.00000000    0.00000000    0.00000000    0.00000000    0.00000000    0.00000000
    3    0.00000000    0.00000000    0.00000000    0.00000000    0.00000000    0.00000000    0.00000000    0.00000000
             17            18            19            20            21            22            23            24
    1    0.00000000    0.00000000    0.00000000    0.00000000    0.00000000    0.00000000    0.00000000    0.00000000
    2    0.00000000    0.00000000    0.00000000    0.00000000    0.00000000    0.00000000    0.00000000    0.00000000
    3    0.00000000    0.00000000    0.00000000    0.00000000    0.00000000    0.00000000    0.00000000    0.00000000
             25            26            27            28            29            30
    1    0.00000000    0.00000000    0.00000000    0.00000000    0.00000000    0.00000000
    2    0.00000000    0.00000000    0.00000000    0.00000000    0.00000000    0.00000000
    3    0.00000000    0.00000000    0.00000000    0.00000000    0.00000000    0.00000000

 Projecting out rotations and translations

 Force Constants (Second Derivatives of the Energy) in [a.u.]
                             CX1         CY1         CZ1         OX2         OY2     
           CX1           0.2551157
           CY1           0.0000000   1.0391610
           CZ1           0.0000000  -0.1919057   0.9895412
           OX2          -0.0813210   0.0000000   0.0000000   0.0549806
           OY2           0.0000000  -0.2035678  -0.0936223   0.0000000   0.7004113
           OZ2           0.0000000  -0.0787267  -0.3922334   0.0000000   0.1150378
           OX3          -0.0939506   0.0000000   0.0000000   0.0360482   0.0000000
           OY3           0.0000000  -0.4888994   0.3405978   0.0000000   0.0515919
           OZ3           0.0000000   0.3684718  -0.5176864   0.0000000   0.0371683
           HX4          -0.0847506   0.0000000   0.0000000   0.0163755   0.0000000
           HY4           0.0000000  -0.3325356  -0.0477605   0.0000000  -0.0116720
           HZ4           0.0000000  -0.0379849  -0.0695197   0.0000000  -0.0484065
           HX5           0.0048834   0.0000000   0.0000000  -0.0294962   0.0000000
           HY5           0.0000000  -0.0057651  -0.0346376   0.0000000  -0.5137046
           HZ5           0.0000000  -0.0660371  -0.0083661   0.0000000  -0.0103484
           CX6           0.0010053   0.0000000   0.0000000  -0.0007643   0.0000000
           CY6           0.0000000  -0.0060006  -0.0032976   0.0000000   0.0033588
           CZ6           0.0000000  -0.0032976   0.0347001   0.0000000  -0.0185074
           OX7          -0.0007643   0.0000000   0.0000000   0.0007865   0.0000000
           OY7           0.0000000   0.0033588  -0.0185074   0.0000000   0.0038959
           OZ7           0.0000000   0.0009611  -0.0192375   0.0000000   0.0085163
           OX8          -0.0014867   0.0000000   0.0000000   0.0049636   0.0000000
           OY8           0.0000000   0.0011516   0.0222163   0.0000000  -0.0247646
           OZ8           0.0000000   0.0044368  -0.0181914   0.0000000   0.0101917
           HX9           0.0001347   0.0000000   0.0000000  -0.0004687   0.0000000
           HY9           0.0000000   0.0004686   0.0004482   0.0000000  -0.0010748
           HZ9           0.0000000   0.0001862  -0.0022782   0.0000000   0.0015701
           HX10          0.0011341   0.0000000   0.0000000  -0.0011042   0.0000000
           HY10          0.0000000  -0.0073716   0.0264689   0.0000000  -0.0044741
           HZ10          0.0000000   0.0038961   0.0032715   0.0000000  -0.0015995
                             OZ2         OX3         OY3         OZ3         HX4     
           OZ2           0.5944303
           OX3           0.0000000   0.0406458
           OY3           0.0380843   0.0000000   0.4823550
           OZ3          -0.1211540   0.0000000  -0.4231670   0.6342563
           HX4           0.0000000   0.0271122   0.0000000   0.0000000   0.0335268
           HY4          -0.0071148   0.0000000  -0.0294924   0.0144618   0.0000000
           HZ4          -0.0160656   0.0000000   0.0447346   0.0016972   0.0000000
           HX5           0.0000000  -0.0070410   0.0000000   0.0000000   0.0072297
           HY5          -0.0521921   0.0000000  -0.0100294   0.0161219   0.0000000
           HZ5          -0.0695257   0.0000000   0.0062888   0.0067185   0.0000000
           CX6           0.0000000  -0.0014867   0.0000000   0.0000000   0.0001347
           CY6           0.0009611   0.0000000   0.0011516   0.0044368   0.0000000
           CZ6          -0.0192375   0.0000000   0.0222163  -0.0181914   0.0000000
           OX7           0.0000000   0.0049636   0.0000000   0.0000000  -0.0004687
           OY7           0.0085163   0.0000000  -0.0247646   0.0101917   0.0000000
           OZ7           0.0106451   0.0000000  -0.0113946   0.0139738   0.0000000
           OX8           0.0000000   0.0020013   0.0000000   0.0000000  -0.0003731
           OY8          -0.0113946   0.0000000   0.0072724  -0.0122366   0.0000000
           OZ8           0.0139738   0.0000000  -0.0122366   0.0069816   0.0000000
           HX9           0.0000000  -0.0003731   0.0000000   0.0000000   0.0000551
           HY9          -0.0003022   0.0000000  -0.0006606  -0.0002616   0.0000000
           HZ9           0.0012034   0.0000000  -0.0019295   0.0012924   0.0000000
           HX10          0.0000000  -0.0079196   0.0000000   0.0000000   0.0011582
           HY10         -0.0128691   0.0000000   0.0114754  -0.0151871   0.0000000
           HZ10         -0.0020364   0.0000000  -0.0031939  -0.0078880   0.0000000
                             HY4         HZ4         HX5         HY5         HZ5     
           HY4           0.3705201
           HZ4           0.0422975   0.0895086
           HX5           0.0000000   0.0000000   0.0300929
           HY5           0.0026810   0.0017419   0.0000000   0.5191045
           HZ5          -0.0015582  -0.0059943   0.0000000   0.0701932   0.0854340
           CX6           0.0000000   0.0000000   0.0011341   0.0000000   0.0000000
           CY6           0.0004686   0.0001862   0.0000000  -0.0073716   0.0038961
           CZ6           0.0004482  -0.0022782   0.0000000   0.0264689   0.0032715
           OX7           0.0000000   0.0000000  -0.0011042   0.0000000   0.0000000
           OY7          -0.0010748   0.0015701   0.0000000  -0.0044741  -0.0015995
           OZ7          -0.0003022   0.0012034   0.0000000  -0.0128691  -0.0020364
           OX8           0.0000000   0.0000000  -0.0079196   0.0000000   0.0000000
           OY8          -0.0006606  -0.0019295   0.0000000   0.0114754  -0.0031939
           OZ8          -0.0002616   0.0012924   0.0000000  -0.0151871  -0.0078880
           HX9           0.0000000   0.0000000   0.0011582   0.0000000   0.0000000
           HY9          -0.0001220  -0.0000515   0.0000000   0.0018876  -0.0001586
           HZ9          -0.0000515   0.0001873   0.0000000  -0.0021576  -0.0000310
           HX10          0.0000000   0.0000000   0.0010627   0.0000000   0.0000000
           HY10          0.0018876  -0.0021576   0.0000000   0.0061963   0.0025176
           HZ10         -0.0001586  -0.0000310   0.0000000   0.0025176  -0.0015826
                             CX6         CY6         CZ6         OX7         OY7     
           CX6           0.2551157
           CY6           0.0000000   1.0391610
           CZ6           0.0000000  -0.1919057   0.9895412
           OX7          -0.0813210   0.0000000   0.0000000   0.0549806
           OY7           0.0000000  -0.2035678  -0.0936223   0.0000000   0.7004113
           OZ7           0.0000000  -0.0787267  -0.3922334   0.0000000   0.1150378
           OX8          -0.0939506   0.0000000   0.0000000   0.0360482   0.0000000
           OY8           0.0000000  -0.4888994   0.3405978   0.0000000   0.0515919
           OZ8           0.0000000   0.3684718  -0.5176864   0.0000000   0.0371683
           HX9          -0.0847506   0.0000000   0.0000000   0.0163755   0.0000000
           HY9           0.0000000  -0.3325356  -0.0477605   0.0000000  -0.0116720
           HZ9           0.0000000  -0.0379849  -0.0695197   0.0000000  -0.0484065
           HX10          0.0048834   0.0000000   0.0000000  -0.0294962   0.0000000
           HY10          0.0000000  -0.0057651  -0.0346376   0.0000000  -0.5137046
           HZ10          0.0000000  -0.0660371  -0.0083661   0.0000000  -0.0103484
                             OZ7         OX8         OY8         OZ8         HX9     
           OZ7           0.5944303
           OX8           0.0000000   0.0406458
           OY8           0.0380843   0.0000000   0.4823550
           OZ8          -0.1211540   0.0000000  -0.4231670   0.6342563
           HX9           0.0000000   0.0271122   0.0000000   0.0000000   0.0335268
           HY9          -0.0071148   0.0000000  -0.0294924   0.0144618   0.0000000
           HZ9          -0.0160656   0.0000000   0.0447346   0.0016972   0.0000000
           HX10          0.0000000  -0.0070410   0.0000000   0.0000000   0.0072297
           HY10         -0.0521921   0.0000000  -0.0100294   0.0161219   0.0000000
           HZ10         -0.0695257   0.0000000   0.0062888   0.0067185   0.0000000
                             HY9         HZ9         HX10        HY10        HZ10    
           HY9           0.3705201
           HZ9           0.0422975   0.0895086
           HX10          0.0000000   0.0000000   0.0300929
           HY10          0.0026810   0.0017419   0.0000000   0.5191045
           HZ10         -0.0015582  -0.0059943   0.0000000   0.0701932   0.0854340


 Atomic Masses
 1-10   12.000000   15.994910   15.994910    1.007825    1.007825   12.000000   15.994910   15.994910    1.007825    1.007825

 Mass weighted Second Derivative Matrix
                             CX1         CY1         CZ1         OX2         OY2     
           CX1           0.0212596
           CY1           0.0000000   0.0865968
           CZ1           0.0000000  -0.0159921   0.0824618
           OX2          -0.0058698   0.0000000   0.0000000   0.0034374
           OY2           0.0000000  -0.0146936  -0.0067577   0.0000000   0.0437896
           OZ2           0.0000000  -0.0056825  -0.0283115   0.0000000   0.0071922
           OX3          -0.0067814   0.0000000   0.0000000   0.0022537   0.0000000
           OY3           0.0000000  -0.0352889   0.0245844   0.0000000   0.0032255
           OZ3           0.0000000   0.0265964  -0.0373667   0.0000000   0.0023238
           HX4          -0.0243702   0.0000000   0.0000000   0.0040786   0.0000000
           HY4           0.0000000  -0.0956214  -0.0137336   0.0000000  -0.0029071
           HZ4           0.0000000  -0.0109227  -0.0199905   0.0000000  -0.0120565
           HX5           0.0014042   0.0000000   0.0000000  -0.0073465   0.0000000
           HY5           0.0000000  -0.0016578  -0.0099601   0.0000000  -0.1279470
           HZ5           0.0000000  -0.0189891  -0.0024057   0.0000000  -0.0025774
           CX6           0.0000838   0.0000000   0.0000000  -0.0000552   0.0000000
           CY6           0.0000000  -0.0005001  -0.0002748   0.0000000   0.0002424
           CZ6           0.0000000  -0.0002748   0.0028917   0.0000000  -0.0013359
           OX7          -0.0000552   0.0000000   0.0000000   0.0000492   0.0000000
           OY7           0.0000000   0.0002424  -0.0013359   0.0000000   0.0002436
           OZ7           0.0000000   0.0000694  -0.0013886   0.0000000   0.0005324
           OX8          -0.0001073   0.0000000   0.0000000   0.0003103   0.0000000
           OY8           0.0000000   0.0000831   0.0016036   0.0000000  -0.0015483
           OZ8           0.0000000   0.0003202  -0.0013131   0.0000000   0.0006372
           HX9           0.0000387   0.0000000   0.0000000  -0.0001167   0.0000000
           HY9           0.0000000   0.0001347   0.0001289   0.0000000  -0.0002677
           HZ9           0.0000000   0.0000535  -0.0006551   0.0000000   0.0003911
           HX10          0.0003261   0.0000000   0.0000000  -0.0002750   0.0000000
           HY10          0.0000000  -0.0021197   0.0076112   0.0000000  -0.0011144
           HZ10          0.0000000   0.0011203   0.0009407   0.0000000  -0.0003984
                             OZ2         OX3         OY3         OZ3         HX4     
           OZ2           0.0371637
           OX3           0.0000000   0.0025412
           OY3           0.0023810   0.0000000   0.0301568
           OZ3          -0.0075745   0.0000000  -0.0264564   0.0396536
           HX4           0.0000000   0.0067527   0.0000000   0.0000000   0.0332665
           HY4          -0.0017721   0.0000000  -0.0073456   0.0036020   0.0000000
           HZ4          -0.0040014   0.0000000   0.0111419   0.0004227   0.0000000
           HX5           0.0000000  -0.0017537   0.0000000   0.0000000   0.0071736
           HY5          -0.0129993   0.0000000  -0.0024980   0.0040154   0.0000000
           HZ5          -0.0173166   0.0000000   0.0015663   0.0016734   0.0000000
           CX6           0.0000000  -0.0001073   0.0000000   0.0000000   0.0000387
           CY6           0.0000694   0.0000000   0.0000831   0.0003202   0.0000000
           CZ6          -0.0013886   0.0000000   0.0016036  -0.0013131   0.0000000
           OX7           0.0000000   0.0003103   0.0000000   0.0000000  -0.0001167
           OY7           0.0005324   0.0000000  -0.0015483   0.0006372   0.0000000
           OZ7           0.0006655   0.0000000  -0.0007124   0.0008736   0.0000000
           OX8           0.0000000   0.0001251   0.0000000   0.0000000  -0.0000929
           OY8          -0.0007124   0.0000000   0.0004547  -0.0007650   0.0000000
           OZ8           0.0008736   0.0000000  -0.0007650   0.0004365   0.0000000
           HX9           0.0000000  -0.0000929   0.0000000   0.0000000   0.0000547
           HY9          -0.0000753   0.0000000  -0.0001645  -0.0000651   0.0000000
           HZ9           0.0002997   0.0000000  -0.0004806   0.0003219   0.0000000
           HX10          0.0000000  -0.0019725   0.0000000   0.0000000   0.0011493
           HY10         -0.0032053   0.0000000   0.0028581  -0.0037826   0.0000000
           HZ10         -0.0005072   0.0000000  -0.0007955  -0.0019646   0.0000000
                             HY4         HZ4         HX5         HY5         HZ5     
           HY4           0.3676433
           HZ4           0.0419691   0.0888136
           HX5           0.0000000   0.0000000   0.0298593
           HY5           0.0026602   0.0017283   0.0000000   0.5150741
           HZ5          -0.0015461  -0.0059477   0.0000000   0.0696482   0.0847707
           CX6           0.0000000   0.0000000   0.0003261   0.0000000   0.0000000
           CY6           0.0001347   0.0000535   0.0000000  -0.0021197   0.0011203
           CZ6           0.0001289  -0.0006551   0.0000000   0.0076112   0.0009407
           OX7           0.0000000   0.0000000  -0.0002750   0.0000000   0.0000000
           OY7          -0.0002677   0.0003911   0.0000000  -0.0011144  -0.0003984
           OZ7          -0.0000753   0.0002997   0.0000000  -0.0032053  -0.0005072
           OX8           0.0000000   0.0000000  -0.0019725   0.0000000   0.0000000
           OY8          -0.0001645  -0.0004806   0.0000000   0.0028581  -0.0007955
           OZ8          -0.0000651   0.0003219   0.0000000  -0.0037826  -0.0019646
           HX9           0.0000000   0.0000000   0.0011493   0.0000000   0.0000000
           HY9          -0.0001211  -0.0000511   0.0000000   0.0018729  -0.0001574
           HZ9          -0.0000511   0.0001858   0.0000000  -0.0021409  -0.0000307
           HX10          0.0000000   0.0000000   0.0010545   0.0000000   0.0000000
           HY10          0.0018729  -0.0021409   0.0000000   0.0061482   0.0024981
           HZ10         -0.0001574  -0.0000307   0.0000000   0.0024981  -0.0015703
                             CX6         CY6         CZ6         OX7         OY7     
           CX6           0.0212596
           CY6           0.0000000   0.0865968
           CZ6           0.0000000  -0.0159921   0.0824618
           OX7          -0.0058698   0.0000000   0.0000000   0.0034374
           OY7           0.0000000  -0.0146936  -0.0067577   0.0000000   0.0437896
           OZ7           0.0000000  -0.0056825  -0.0283115   0.0000000   0.0071922
           OX8          -0.0067814   0.0000000   0.0000000   0.0022537   0.0000000
           OY8           0.0000000  -0.0352889   0.0245844   0.0000000   0.0032255
           OZ8           0.0000000   0.0265964  -0.0373667   0.0000000   0.0023238
           HX9          -0.0243702   0.0000000   0.0000000   0.0040786   0.0000000
           HY9           0.0000000  -0.0956214  -0.0137336   0.0000000  -0.0029071
           HZ9           0.0000000  -0.0109227  -0.0199905   0.0000000  -0.0120565
           HX10          0.0014042   0.0000000   0.0000000  -0.0073465   0.0000000
           HY10          0.0000000  -0.0016578  -0.0099601   0.0000000  -0.1279470
           HZ10          0.0000000  -0.0189891  -0.0024057   0.0000000  -0.0025774
                             OZ7         OX8         OY8         OZ8         HX9     
           OZ7           0.0371637
           OX8           0.0000000   0.0025412
           OY8           0.0023810   0.0000000   0.0301568
           OZ8          -0.0075745   0.0000000  -0.0264564   0.0396536
           HX9           0.0000000   0.0067527   0.0000000   0.0000000   0.0332665
           HY9          -0.0017721   0.0000000  -0.0073456   0.0036020   0.0000000
           HZ9          -0.0040014   0.0000000   0.0111419   0.0004227   0.0000000
           HX10          0.0000000  -0.0017537   0.0000000   0.0000000   0.0071736
           HY10         -0.0129993   0.0000000  -0.0024980   0.0040154   0.0000000
           HZ10         -0.0173166   0.0000000   0.0015663   0.0016734   0.0000000
                             HY9         HZ9         HX10        HY10        HZ10    
           HY9           0.3676433
           HZ9           0.0419691   0.0888136
           HX10          0.0000000   0.0000000   0.0298593
           HY10          0.0026602   0.0017283   0.0000000   0.5150741
           HZ10         -0.0015461  -0.0059477   0.0000000   0.0696482   0.0847707


 Mass Weighted 2nd Derivative Matrix Eigenvalues
 1-10    0.000000    0.000000    0.000000    0.000000    0.000000    0.000000    0.000214    0.001018    0.001058    0.001206
 11-20    0.001819    0.002249    0.020542    0.021312    0.031319    0.034763    0.055428    0.055696    0.068629    0.068998
 21-30    0.085009    0.087378    0.091289    0.092482    0.140481    0.148195    0.403096    0.403787    0.551765    0.565241

 Mass Weighted 2nd Derivative Matrix Eigenvectors
              1             2             3             4             5             6             7             8
    1    0.00000000    0.00000000    0.00000000    0.57242698    0.00000000    0.00000000   -0.03338847    0.00000000
    2   -0.23444070   -0.10727766    0.00165075    0.00000000    0.06809418    0.24748432    0.00000000    0.15634442
    3    0.13568507    0.41853638   -0.00215990    0.00000000    0.21157002    0.18469011    0.00000000   -0.05119597
    4   -0.20811368    0.13464865    0.47154320    0.51260460   -0.00551791   -0.14040561   -0.46918519    0.00000000
    5   -0.29025962    0.05554788   -0.06925378    0.00000000    0.27905202    0.23995130    0.00000000    0.55048871
    6    0.16149943    0.43881225    0.01511563    0.00000000    0.19466089    0.22455504    0.00000000   -0.16970969
    7    0.23369413   -0.18274143   -0.29128083    0.57220908    0.10905458    0.11410093    0.52286215    0.00000000
    8   -0.25652948   -0.25328560    0.05324484    0.00000000   -0.06599139    0.31874873    0.00000000   -0.10295310
    9    0.16859063    0.37388514    0.04086893    0.00000000    0.12212125    0.24112088    0.00000000   -0.31282681
   10   -0.01596903    0.01862313   -0.02643668    0.22158610   -0.02746081    0.00067728   -0.06515591    0.00000000
   11   -0.06737729   -0.03625497    0.00252734    0.00000000    0.01396254    0.07303954    0.00000000    0.03528442
   12    0.03512417    0.15972687   -0.01587078    0.00000000    0.10425381    0.04371737    0.00000000    0.06355158
   13   -0.03765800    0.01700364    0.14091848    0.07951418    0.02300524   -0.03557236   -0.03347159    0.00000000
   14   -0.07332263    0.01818064   -0.01906451    0.00000000    0.07478059    0.05915054    0.00000000    0.14578382
   15    0.04425622    0.07611371    0.01729433    0.00000000    0.01083723    0.06505088    0.00000000   -0.07809947
   16    0.20973183   -0.23936064    0.30771734   -0.11675568    0.34360885   -0.00167324   -0.03338847    0.00000000
   17   -0.24054642   -0.05137359   -0.02052357    0.00000000    0.13055286    0.23322066    0.00000000   -0.15634442
   18    0.18793395   -0.05985485    0.18759372    0.00000000   -0.32291135    0.30674940    0.00000000    0.05119597
   19    0.45025261   -0.41099455   -0.11627834    0.01347560    0.40222012    0.13847382   -0.46918519    0.00000000
   20   -0.25812102   -0.23871342    0.04746480    0.00000000   -0.04971066    0.31503070    0.00000000   -0.55048871
   21    0.21212418   -0.02470837    0.19897083    0.00000000   -0.32320633    0.34282017    0.00000000    0.16970969
   22    0.00844480   -0.09360447    0.64654568   -0.04612889    0.28764763   -0.11603272    0.52286215    0.00000000
   23   -0.29185116    0.07012006   -0.07503383    0.00000000    0.29533275    0.23623328    0.00000000    0.10295310
   24    0.20503298    0.04021873    0.17321753    0.00000000   -0.25066670    0.32625432    0.00000000    0.31282681
   25    0.07674982   -0.08799041    0.11561389   -0.08953147    0.12703947   -0.00116219   -0.06515591    0.00000000
   26   -0.07027511   -0.00972254   -0.00799673    0.00000000    0.04360584    0.06626991    0.00000000   -0.03528442
   27    0.05866139   -0.05578011    0.06960994    0.00000000   -0.13652080    0.09870297    0.00000000   -0.06355158
   28    0.09843879   -0.08637093   -0.05174126    0.05254044    0.07657342    0.03508745   -0.03347159    0.00000000
   29   -0.06432976   -0.06415814    0.01359512    0.00000000   -0.01721220    0.08015890    0.00000000   -0.14578382
   30    0.04952934    0.02783305    0.03644483    0.00000000   -0.04310421    0.07736946    0.00000000    0.07809947
              9            10            11            12            13            14            15            16
    1    0.41334740    0.00000000    0.00000000    0.33058101    0.00000000    0.00000000    0.12573899    0.15691398
    2    0.00000000    0.33383353   -0.04904847    0.00000000   -0.31339932   -0.31793877    0.00000000    0.00000000
    3    0.00000000    0.06993307    0.13999986    0.00000000   -0.03014699   -0.02799311    0.00000000    0.00000000
    4   -0.25060516    0.00000000    0.00000000   -0.25184759    0.00000000    0.00000000   -0.19249617   -0.19275805
    5    0.00000000    0.15449897    0.45689334    0.00000000    0.18724797    0.17978213    0.00000000    0.00000000
    6    0.00000000    0.11530422    0.02895911    0.00000000   -0.31628077   -0.31581608    0.00000000    0.00000000
    7   -0.15900553    0.00000000    0.00000000   -0.36307641    0.00000000    0.00000000   -0.02954598   -0.11637406
    8    0.00000000    0.53991536   -0.43865915    0.00000000    0.10183768    0.09981624    0.00000000    0.00000000
    9    0.00000000    0.19622553   -0.16788454    0.00000000    0.40322086    0.41484760    0.00000000    0.00000000
   10    0.43437036    0.00000000    0.00000000    0.40809367    0.00000000    0.00000000    0.03115565    0.03960115
   11    0.00000000    0.10426140   -0.03048832    0.00000000   -0.08660424   -0.08903880    0.00000000    0.00000000
   12    0.00000000   -0.03513850    0.15400756    0.00000000   -0.03793960   -0.03390397    0.00000000    0.00000000
   13   -0.22886811    0.00000000    0.00000000   -0.17007078    0.00000000    0.00000000    0.66730150    0.65046996
   14    0.00000000    0.03861356    0.12709479    0.00000000    0.07507577    0.07226096    0.00000000    0.00000000
   15    0.00000000    0.05376183   -0.08364276    0.00000000   -0.27971886   -0.26402474    0.00000000    0.00000000
   16    0.41334740    0.00000000    0.00000000   -0.33058101    0.00000000    0.00000000   -0.12573899    0.15691398
   17    0.00000000   -0.33383353   -0.04904847    0.00000000    0.31339932   -0.31793877    0.00000000    0.00000000
   18    0.00000000   -0.06993307    0.13999986    0.00000000    0.03014699   -0.02799311    0.00000000    0.00000000
   19   -0.25060516    0.00000000    0.00000000    0.25184759    0.00000000    0.00000000    0.19249617   -0.19275805
   20    0.00000000   -0.15449897    0.45689334    0.00000000   -0.18724797    0.17978213    0.00000000    0.00000000
   21    0.00000000   -0.11530422    0.02895911    0.00000000    0.31628077   -0.31581608    0.00000000    0.00000000
   22   -0.15900553    0.00000000    0.00000000    0.36307641    0.00000000    0.00000000    0.02954598   -0.11637406
   23    0.00000000   -0.53991536   -0.43865915    0.00000000   -0.10183768    0.09981624    0.00000000    0.00000000
   24    0.00000000   -0.19622553   -0.16788454    0.00000000   -0.40322086    0.41484760    0.00000000    0.00000000
   25    0.43437036    0.00000000    0.00000000   -0.40809367    0.00000000    0.00000000   -0.03115565    0.03960115
   26    0.00000000   -0.10426140   -0.03048832    0.00000000    0.08660424   -0.08903880    0.00000000    0.00000000
   27    0.00000000    0.03513850    0.15400756    0.00000000    0.03793960   -0.03390397    0.00000000    0.00000000
   28   -0.22886811    0.00000000    0.00000000    0.17007078    0.00000000    0.00000000   -0.66730150    0.65046996
   29    0.00000000   -0.03861356    0.12709479    0.00000000   -0.07507577    0.07226096    0.00000000    0.00000000
   30    0.00000000   -0.05376183   -0.08364276    0.00000000    0.27971886   -0.26402474    0.00000000    0.00000000
             17            18            19            20            21            22            23            24
    1   -0.42148847   -0.41591810    0.00000000    0.00000000    0.00000000    0.00000000    0.00000000    0.00000000
    2    0.00000000    0.00000000   -0.23847960   -0.23695209   -0.27055136   -0.23193360   -0.06331922    0.01289708
    3    0.00000000    0.00000000   -0.25991297   -0.22464781   -0.28768127   -0.29485601   -0.02548051    0.07540374
    4    0.08398130    0.07790765    0.00000000    0.00000000    0.00000000    0.00000000    0.00000000    0.00000000
    5    0.00000000    0.00000000    0.11423446    0.08717728    0.18561000    0.12845189   -0.11776749   -0.15864339
    6    0.00000000    0.00000000    0.45963649    0.45601102    0.05382315    0.05239134    0.07172227    0.06322935
    7    0.12630339    0.11812047    0.00000000    0.00000000    0.00000000    0.00000000    0.00000000    0.00000000
    8    0.00000000    0.00000000    0.10567601    0.10872712    0.08666826    0.13874497    0.19678800    0.15719881
    9    0.00000000    0.00000000   -0.12717053   -0.12802673    0.02699860    0.02914074   -0.13227282   -0.16394713
   10    0.54063529    0.54272970    0.00000000    0.00000000    0.00000000    0.00000000    0.00000000    0.00000000
   11    0.00000000    0.00000000   -0.04575921   -0.04352322   -0.12190766   -0.14360482   -0.10757584   -0.06248693
   12    0.00000000    0.00000000   -0.25732845   -0.26528189    0.16532686    0.37749325    0.58542824    0.48308390
   13    0.08399730    0.11151034    0.00000000    0.00000000    0.00000000    0.00000000    0.00000000    0.00000000
   14    0.00000000    0.00000000    0.07308226    0.08071116   -0.02922458   -0.03694607    0.01126434    0.02461212
   15    0.00000000    0.00000000   -0.22419832   -0.26616849    0.50537571    0.39425137   -0.25628278   -0.41894118
   16    0.42148847   -0.41591810    0.00000000    0.00000000    0.00000000    0.00000000    0.00000000    0.00000000
   17    0.00000000    0.00000000    0.23847960   -0.23695209   -0.27055136    0.23193360   -0.06331922   -0.01289708
   18    0.00000000    0.00000000    0.25991297   -0.22464781   -0.28768127    0.29485601   -0.02548051   -0.07540374
   19   -0.08398130    0.07790765    0.00000000    0.00000000    0.00000000    0.00000000    0.00000000    0.00000000
   20    0.00000000    0.00000000   -0.11423446    0.08717728    0.18561000   -0.12845189   -0.11776749    0.15864339
   21    0.00000000    0.00000000   -0.45963649    0.45601102    0.05382315   -0.05239134    0.07172227   -0.06322935
   22   -0.12630339    0.11812047    0.00000000    0.00000000    0.00000000    0.00000000    0.00000000    0.00000000
   23    0.00000000    0.00000000   -0.10567601    0.10872712    0.08666826   -0.13874497    0.19678800   -0.15719881
   24    0.00000000    0.00000000    0.12717053   -0.12802673    0.02699860   -0.02914074   -0.13227282    0.16394713
   25   -0.54063529    0.54272970    0.00000000    0.00000000    0.00000000    0.00000000    0.00000000    0.00000000
   26    0.00000000    0.00000000    0.04575921   -0.04352322   -0.12190766    0.14360482   -0.10757584    0.06248693
   27    0.00000000    0.00000000    0.25732845   -0.26528189    0.16532686   -0.37749325    0.58542824   -0.48308390
   28   -0.08399730    0.11151034    0.00000000    0.00000000    0.00000000    0.00000000    0.00000000    0.00000000
   29    0.00000000    0.00000000   -0.07308226    0.08071116   -0.02922458    0.03694607    0.01126434   -0.02461212
   30    0.00000000    0.00000000    0.22419832   -0.26616849    0.50537571   -0.39425137   -0.25628278    0.41894118
             25            26            27            28            29            30
    1    0.00000000    0.00000000    0.00000000    0.00000000    0.00000000    0.00000000
    2   -0.33230737   -0.30097168   -0.20513422   -0.20660750    0.00242283   -0.00850051
    3    0.43382621    0.46344197   -0.02328349   -0.02270107   -0.02525073    0.00039784
    4    0.00000000    0.00000000    0.00000000    0.00000000    0.00000000    0.00000000
    5    0.02531058    0.02439405    0.00818010    0.00409295   -0.17004127   -0.16884223
    6   -0.07880037   -0.09419812    0.00201218    0.00093258   -0.01742524   -0.02683517
    7    0.00000000    0.00000000    0.00000000    0.00000000    0.00000000    0.00000000
    8    0.25941554    0.25624563    0.00757378    0.00903821   -0.00997172    0.00038143
    9   -0.29636052   -0.30202601   -0.00656836   -0.00667531    0.01321194   -0.00069226
   10    0.00000000    0.00000000    0.00000000    0.00000000    0.00000000    0.00000000
   11   -0.07918150   -0.06528058    0.66864543    0.66856930    0.00847803    0.02264221
   12   -0.11280420   -0.11899506    0.09779521    0.09764607    0.01064797    0.00463306
   13    0.00000000    0.00000000    0.00000000    0.00000000    0.00000000    0.00000000
   14    0.01320468   -0.01419275   -0.02356409   -0.00963101    0.67810986    0.67780528
   15    0.14220290    0.09831015    0.00069835    0.00645872    0.09923016    0.10365809
   16    0.00000000    0.00000000    0.00000000    0.00000000    0.00000000    0.00000000
   17    0.33230737   -0.30097168   -0.20513422    0.20660750   -0.00242283   -0.00850051
   18   -0.43382621    0.46344197   -0.02328349    0.02270107    0.02525073    0.00039784
   19    0.00000000    0.00000000    0.00000000    0.00000000    0.00000000    0.00000000
   20   -0.02531058    0.02439405    0.00818010   -0.00409295    0.17004127   -0.16884223
   21    0.07880037   -0.09419812    0.00201218   -0.00093258    0.01742524   -0.02683517
   22    0.00000000    0.00000000    0.00000000    0.00000000    0.00000000    0.00000000
   23   -0.25941554    0.25624563    0.00757378   -0.00903821    0.00997172    0.00038143
   24    0.29636052   -0.30202601   -0.00656836    0.00667531   -0.01321194   -0.00069226
   25    0.00000000    0.00000000    0.00000000    0.00000000    0.00000000    0.00000000
   26    0.07918150   -0.06528058    0.66864543   -0.66856930   -0.00847803    0.02264221
   27    0.11280420   -0.11899506    0.09779521   -0.09764607   -0.01064797    0.00463306
   28    0.00000000    0.00000000    0.00000000    0.00000000    0.00000000    0.00000000
   29   -0.01320468   -0.01419275   -0.02356409    0.00963101   -0.67810986    0.67780528
   30   -0.14220290    0.09831015    0.00069835   -0.00645872   -0.09923016    0.10365809

   Low Vibration      Wavenumber
        Nr             [1/cm] 
        1                0.00
        2                0.00
        3                0.00
        4                0.00
        5                0.00
        6                0.00

     Vibration        Wavenumber
        Nr             [1/cm] 
        1               75.20
        2              164.04
        3              167.24
        4              178.55
        5              219.25
        6              243.77
        7              736.76
        8              750.44
        9              909.73
       10              958.44
       11             1210.24
       12             1213.15
       13             1346.66
       14             1350.28
       15             1498.77
       16             1519.51
       17             1553.15
       18             1563.27
       19             1926.69
       20             1978.88
       21             3263.69
       22             3266.48
       23             3818.40
       24             3864.75

 FREQUENCIES * CALCULATION OF NORMAL MODES FOR HF-SCF


 Atomic Coordinates

  Nr  Atom  Charge       X              Y              Z

   1   C     6.00    0.000000000   -3.665086543   -0.428296449
   2   O     8.00    0.000000000   -3.075882978    1.952692670
   3   O     8.00    0.000000000   -2.214181661   -2.146092130
   4   H     1.00    0.000000000   -5.697186216   -0.701416866
   5   H     1.00    0.000000000   -1.276357329    2.176724759
   6   C     6.00    0.000000000    3.665086543    0.428296449
   7   O     8.00    0.000000000    3.075882978   -1.952692670
   8   O     8.00    0.000000000    2.214181661    2.146092130
   9   H     1.00    0.000000000    5.697186216    0.701416866
  10   H     1.00    0.000000000    1.276357329   -2.176724759

 Gradient norm at reference geometry: 0.53069D-07

 Normal Modes

                              1 Au        2 Ag        3 Au        4 Ag        5 Bu 
 Wavenumbers [cm-1]           75.20      164.04      167.24      178.55      219.25
 Intensities [km/mol]          0.00        0.00        0.00        0.00        0.00
 Intensities [relative]        0.00        0.00        0.00        0.00        0.00
           CX1             -0.00964     0.00000     0.11932    -0.00000    -0.00000
           CY1             -0.00000     0.04513    -0.00000     0.09637    -0.01416
           CZ1              0.00000    -0.01478    -0.00000     0.02019     0.04041
           OX2             -0.11731    -0.00000    -0.06266     0.00000     0.00000
           OY2             -0.00000     0.13764    -0.00000     0.03863     0.11424
           OZ2              0.00000    -0.04243     0.00000     0.02883     0.00724
           OX3              0.13074    -0.00000    -0.03976    -0.00000     0.00000
           OY3             -0.00000    -0.02574     0.00000     0.13500    -0.10968
           OZ3              0.00000    -0.07822     0.00000     0.04906    -0.04198
           HX4             -0.06490     0.00000     0.43268    -0.00000    -0.00000
           HY4             -0.00000     0.03515    -0.00000     0.10386    -0.03037
           HZ4              0.00000     0.06330    -0.00000    -0.03500     0.15341
           HX5             -0.03334    -0.00000    -0.22798     0.00000     0.00000
           HY5             -0.00000     0.14522    -0.00000     0.03846     0.12660
           HZ5              0.00000    -0.07780     0.00000     0.05355    -0.08332
           CX6             -0.00964     0.00000     0.11932     0.00000    -0.00000
           CY6              0.00000    -0.04513     0.00000    -0.09637    -0.01416
           CZ6             -0.00000     0.01478    -0.00000    -0.02019     0.04041
           OX7             -0.11731    -0.00000    -0.06266    -0.00000    -0.00000
           OY7             -0.00000    -0.13764     0.00000    -0.03863     0.11424
           OZ7             -0.00000     0.04243    -0.00000    -0.02883     0.00724
           OX8              0.13074    -0.00000    -0.03976     0.00000    -0.00000
           OY8              0.00000     0.02574    -0.00000    -0.13500    -0.10968
           OZ8             -0.00000     0.07822    -0.00000    -0.04906    -0.04198
           HX9             -0.06490     0.00000     0.43268    -0.00000    -0.00000
           HY9              0.00000    -0.03515     0.00000    -0.10386    -0.03037
           HZ9             -0.00000    -0.06330     0.00000     0.03500     0.15341
           HX10            -0.03334    -0.00000    -0.22798     0.00000    -0.00000
           HY10            -0.00000    -0.14522     0.00000    -0.03846     0.12660
           HZ10            -0.00000     0.07780    -0.00000    -0.05355    -0.08332

                              6 Bg        7 Ag        8 Bu        9 Bg       10 Au 
 Wavenumbers [cm-1]          243.77      736.76      750.44      909.73      958.44
 Intensities [km/mol]          0.00        0.00        0.00        0.00        0.00
 Intensities [relative]        0.00        0.00        0.00        0.00        0.00
           CX1              0.09543     0.00000     0.00000     0.03630     0.04530
           CY1              0.00000    -0.09047    -0.09178    -0.00000     0.00000
           CZ1              0.00000    -0.00870    -0.00808    -0.00000     0.00000
           OX2             -0.06297    -0.00000     0.00000    -0.04813    -0.04820
           OY2              0.00000     0.04682     0.04495     0.00000    -0.00000
           OZ2             -0.00000    -0.07908    -0.07897     0.00000    -0.00000
           OX3             -0.09078     0.00000    -0.00000    -0.00739    -0.02910
           OY3             -0.00000     0.02546     0.02496     0.00000     0.00000
           OZ3             -0.00000     0.10082     0.10373     0.00000    -0.00000
           HX4              0.40651    -0.00000    -0.00000     0.03103     0.03945
           HY4              0.00000    -0.08627    -0.08869     0.00000    -0.00000
           HZ4              0.00000    -0.03779    -0.03377    -0.00000     0.00000
           HX5             -0.16941    -0.00000    -0.00000     0.66471     0.64794
           HY5              0.00000     0.07478     0.07198     0.00000    -0.00000
           HZ5             -0.00000    -0.27863    -0.26300    -0.00000     0.00000
           CX6             -0.09543     0.00000     0.00000    -0.03630     0.04530
           CY6             -0.00000     0.09047    -0.09178     0.00000    -0.00000
           CZ6              0.00000     0.00870    -0.00808    -0.00000     0.00000
           OX7              0.06297    -0.00000    -0.00000     0.04813    -0.04820
           OY7              0.00000    -0.04682     0.04495     0.00000    -0.00000
           OZ7              0.00000     0.07908    -0.07897     0.00000    -0.00000
           OX8              0.09078    -0.00000     0.00000     0.00739    -0.02910
           OY8             -0.00000    -0.02546     0.02496    -0.00000     0.00000
           OZ8             -0.00000    -0.10082     0.10373     0.00000    -0.00000
           HX9             -0.40651    -0.00000    -0.00000    -0.03103     0.03945
           HY9             -0.00000     0.08627    -0.08869     0.00000    -0.00000
           HZ9              0.00000     0.03779    -0.03377    -0.00000     0.00000
           HX10             0.16941     0.00000     0.00000    -0.66471     0.64794
           HY10             0.00000    -0.07478     0.07198    -0.00000     0.00000
           HZ10            -0.00000     0.27863    -0.26300     0.00000    -0.00000

                             11 Bg       12 Au       13 Ag       14 Bu       15 Bu 
 Wavenumbers [cm-1]         1210.24     1213.15     1346.66     1350.28     1498.77
 Intensities [km/mol]          0.00        0.00        0.00        0.00        0.00
 Intensities [relative]        0.00        0.00        0.00        0.00        0.00
           CX1             -0.12167    -0.12007    -0.00000    -0.00000    -0.00000
           CY1              0.00000    -0.00000    -0.06884    -0.06840    -0.07810
           CZ1              0.00000    -0.00000    -0.07503    -0.06485    -0.08305
           OX2              0.02100     0.01948    -0.00000    -0.00000    -0.00000
           OY2             -0.00000     0.00000     0.02856     0.02180     0.04641
           OZ2             -0.00000     0.00000     0.11493     0.11402     0.01346
           OX3              0.03158     0.02953     0.00000     0.00000     0.00000
           OY3             -0.00000     0.00000     0.02642     0.02719     0.02167
           OZ3              0.00000    -0.00000    -0.03180    -0.03201     0.00675
           HX4              0.53853     0.54062     0.00000    -0.00000     0.00000
           HY4             -0.00000     0.00000    -0.04558    -0.04335    -0.12143
           HZ4              0.00000    -0.00000    -0.25633    -0.26425     0.16468
           HX5              0.08367     0.11108    -0.00000    -0.00000     0.00000
           HY5             -0.00000     0.00000     0.07280     0.08040    -0.02911
           HZ5              0.00000    -0.00000    -0.22333    -0.26513     0.50341
           CX6              0.12167    -0.12007     0.00000     0.00000    -0.00000
           CY6             -0.00000     0.00000     0.06884    -0.06840    -0.07810
           CZ6              0.00000    -0.00000     0.07503    -0.06485    -0.08305
           OX7             -0.02100     0.01948    -0.00000    -0.00000     0.00000
           OY7             -0.00000     0.00000    -0.02856     0.02180     0.04641
           OZ7             -0.00000     0.00000    -0.11493     0.11402     0.01346
           OX8             -0.03158     0.02953    -0.00000    -0.00000     0.00000
           OY8              0.00000    -0.00000    -0.02642     0.02719     0.02167
           OZ8             -0.00000     0.00000     0.03180    -0.03201     0.00675
           HX9             -0.53853     0.54062    -0.00000    -0.00000     0.00000
           HY9             -0.00000     0.00000     0.04558    -0.04335    -0.12143
           HZ9              0.00000    -0.00000     0.25633    -0.26425     0.16468
           HX10            -0.08367     0.11108     0.00000     0.00000    -0.00000
           HY10             0.00000    -0.00000    -0.07280     0.08040    -0.02911
           HZ10            -0.00000     0.00000     0.22333    -0.26513     0.50341

                             16 Ag       17 Bu       18 Ag       19 Ag       20 Bu 
 Wavenumbers [cm-1]         1519.51     1553.15     1563.27     1926.69     1978.88
 Intensities [km/mol]          0.00        0.00        0.00        0.00        0.00
 Intensities [relative]        0.00        0.00        0.00        0.00        0.00
           CX1             -0.00000     0.00000     0.00000    -0.00000     0.00000
           CY1             -0.06695    -0.01828     0.00372    -0.09593    -0.08688
           CZ1             -0.08512    -0.00736     0.02177     0.12523     0.13378
           OX2             -0.00000    -0.00000     0.00000    -0.00000    -0.00000
           OY2              0.03212    -0.02945    -0.03967     0.00633     0.00610
           OZ2              0.01310     0.01793     0.01581    -0.01970    -0.02355
           OX3              0.00000     0.00000     0.00000     0.00000     0.00000
           OY3              0.03469     0.04920     0.03931     0.06486     0.06407
           OZ3              0.00729    -0.03307    -0.04099    -0.07410    -0.07552
           HX4              0.00000    -0.00000    -0.00000    -0.00000    -0.00000
           HY4             -0.14305    -0.10716    -0.06224    -0.07887    -0.06503
           HZ4              0.37602     0.58315     0.48120    -0.11237    -0.11853
           HX5              0.00000     0.00000     0.00000    -0.00000    -0.00000
           HY5             -0.03680     0.01122     0.02452     0.01315    -0.01414
           HZ5              0.39272    -0.25529    -0.41731     0.14165     0.09793
           CX6             -0.00000    -0.00000    -0.00000     0.00000    -0.00000
           CY6              0.06695    -0.01828    -0.00372     0.09593    -0.08688
           CZ6              0.08512    -0.00736    -0.02177    -0.12523     0.13378
           OX7              0.00000     0.00000    -0.00000    -0.00000     0.00000
           OY7             -0.03212    -0.02945     0.03967    -0.00633     0.00610
           OZ7             -0.01310     0.01793    -0.01581     0.01970    -0.02355
           OX8              0.00000     0.00000     0.00000    -0.00000     0.00000
           OY8             -0.03469     0.04920    -0.03931    -0.06486     0.06407
           OZ8             -0.00729    -0.03307     0.04099     0.07410    -0.07552
           HX9              0.00000     0.00000     0.00000    -0.00000     0.00000
           HY9              0.14305    -0.10716     0.06224     0.07887    -0.06503
           HZ9             -0.37602     0.58315    -0.48120     0.11237    -0.11853
           HX10            -0.00000    -0.00000    -0.00000     0.00000    -0.00000
           HY10             0.03680     0.01122    -0.02452    -0.01315    -0.01414
           HZ10            -0.39272    -0.25529     0.41731    -0.14165     0.09793

                             21 Bu       22 Ag       23 Ag       24 Bu 
 Wavenumbers [cm-1]         3263.69     3266.48     3818.40     3864.75
 Intensities [km/mol]          0.00        0.00        0.00        0.00
 Intensities [relative]        0.00        0.00        0.00        0.00
           CX1             -0.00000    -0.00000    -0.00000    -0.00000
           CY1             -0.05922    -0.05964     0.00070    -0.00245
           CZ1             -0.00672    -0.00655    -0.00729     0.00011
           OX2             -0.00000    -0.00000    -0.00000    -0.00000
           OY2              0.00205     0.00102    -0.04252    -0.04222
           OZ2              0.00050     0.00023    -0.00436    -0.00671
           OX3              0.00000     0.00000     0.00000     0.00000
           OY3              0.00189     0.00226    -0.00249     0.00010
           OZ3             -0.00164    -0.00167     0.00330    -0.00017
           HX4             -0.00000    -0.00000     0.00000     0.00000
           HY4              0.66604     0.66597     0.00845     0.02255
           HZ4              0.09741     0.09727     0.01061     0.00462
           HX5             -0.00000    -0.00000    -0.00000    -0.00000
           HY5             -0.02347    -0.00959     0.67547     0.67517
           HZ5              0.00070     0.00643     0.09884     0.10325
           CX6              0.00000    -0.00000    -0.00000    -0.00000
           CY6             -0.05922     0.05964    -0.00070    -0.00245
           CZ6             -0.00672     0.00655     0.00729     0.00011
           OX7              0.00000    -0.00000    -0.00000    -0.00000
           OY7              0.00205    -0.00102     0.04252    -0.04222
           OZ7              0.00050    -0.00023     0.00436    -0.00671
           OX8              0.00000     0.00000     0.00000     0.00000
           OY8              0.00189    -0.00226     0.00249     0.00010
           OZ8             -0.00164     0.00167    -0.00330    -0.00017
           HX9             -0.00000    -0.00000     0.00000     0.00000
           HY9              0.66604    -0.66597    -0.00845     0.02255
           HZ9              0.09741    -0.09727    -0.01061     0.00462
           HX10             0.00000    -0.00000     0.00000     0.00000
           HY10            -0.02347     0.00959    -0.67547     0.67517
           HZ10             0.00070    -0.00643    -0.09884     0.10325


 Normal Modes of low/zero frequencies

                                  1           2           3           4           5
 Wavenumbers [cm-1]            0.00        0.00        0.00        0.00        0.00
 Intensities [km/mol]          0.00        0.00        0.00        0.00        0.00
 Intensities [relative]        0.00        0.00        0.00        0.00        0.00
           CX1              0.00000     0.00000     0.00000     0.16525    -0.00000
           CY1             -0.06768    -0.03097     0.00048     0.00000     0.01966
           CZ1              0.03917     0.12082    -0.00062    -0.00000     0.06108
           OX2             -0.05204     0.03367     0.11790     0.12817    -0.00138
           OY2             -0.07258     0.01389    -0.01732    -0.00000     0.06977
           OZ2              0.04038     0.10972     0.00378    -0.00000     0.04867
           OX3              0.05843    -0.04569    -0.07283     0.14308     0.02727
           OY3             -0.06414    -0.06333     0.01331     0.00000    -0.01650
           OZ3              0.04215     0.09349     0.01022    -0.00000     0.03054
           HX4             -0.01591     0.01855    -0.02633     0.22072    -0.02735
           HY4             -0.06712    -0.03611     0.00252     0.00000     0.01391
           HZ4              0.03499     0.15911    -0.01581    -0.00000     0.10385
           HX5             -0.03751     0.01694     0.14037     0.07920     0.02292
           HY5             -0.07304     0.01811    -0.01899    -0.00000     0.07449
           HZ5              0.04408     0.07582     0.01723    -0.00000     0.01080
           CX6              0.06054    -0.06910     0.08883    -0.03370     0.09919
           CY6             -0.06944    -0.01483    -0.00592     0.00000     0.03769
           CZ6              0.05425    -0.01728     0.05415     0.00000    -0.09322
           OX7              0.11258    -0.10276    -0.02907     0.00337     0.10057
           OY7             -0.06454    -0.05969     0.01187     0.00000    -0.01243
           OZ7              0.05304    -0.00618     0.04975     0.00000    -0.08081
           OX8              0.00211    -0.02340     0.16166    -0.01153     0.07192
           OY8             -0.07297     0.01753    -0.01876    -0.00000     0.07384
           OZ8              0.05127     0.01006     0.04331    -0.00000    -0.06268
           HX9              0.07645    -0.08765     0.11516    -0.08918     0.12655
           HY9             -0.07000    -0.00968    -0.00797     0.00000     0.04344
           HZ9              0.05843    -0.05556     0.06934     0.00000    -0.13599
           HX10             0.09806    -0.08603    -0.05154     0.05234     0.07628
           HY10            -0.06408    -0.06391     0.01354     0.00000    -0.01715
           HZ10             0.04934     0.02772     0.03630    -0.00000    -0.04294

                                  6
 Wavenumbers [cm-1]            0.00
 Intensities [km/mol]          0.00
 Intensities [relative]        0.00
           CX1             -0.00000
           CY1              0.07144
           CZ1              0.05332
           OX2             -0.03511
           OY2              0.06000
           OZ2              0.05615
           OX3              0.02853
           OY3              0.07970
           OZ3              0.06029
           HX4              0.00067
           HY4              0.07276
           HZ4              0.04355
           HX5             -0.03543
           HY5              0.05892
           HZ5              0.06480
           CX6             -0.00048
           CY6              0.06733
           CZ6              0.08855
           OX7              0.03462
           OY7              0.07877
           OZ7              0.08572
           OX8             -0.02901
           OY8              0.05907
           OZ8              0.08158
           HX9             -0.00116
           HY9              0.06601
           HZ9              0.09832
           HX10             0.03495
           HY10             0.07985
           HZ10             0.07707


 Frequencies dumped to record   5400.2

 Zero point energy:  0.07695047 [H]    16888.68 [1/CM]      202.03 [KJ/MOL]
 Frequency information read from record  5400.2


 **********************************************************************************************************************************
 DATASETS  * FILE   NREC   LENGTH (MB)   RECORD NAMES
              1      18       28.93       500      610      700      900      950      970     1000      129      960     1100   
                                          VAR    BASINP    GEOM    SYMINP    ZMAT    AOBASIS   BASIS     P2S    ABASIS      S 
                                         1400     1410     1200     1210     1080     1600     1650     1700   
                                           T        V       H0       H01     AOSYM     SMH    MOLCAS    OPER   

              2       7        0.70       700     1000      520     2100     5300     5450     5400   
                                         GEOM     BASIS   MCVARS     RHF     HESS     NMOD     FREQ   

              4       5        1.57      4100     4000     4200     4300     4400   

 PROGRAMS   *        TOTAL      FREQ      OPTG    HF-SCF       INT
 CPU TIMES  *       398.12    280.59    115.71      0.52      1.13
 REAL TIME  *       222.85 SEC
 DISK USED  *        29.97 MB (local),      381.68 MB (total)
 SF USED    *         1.57 MB
 GA USED    *         0.00 MB       (max)       0.00 MB       (current)
 **********************************************************************************************************************************

 Dump information in style MOLDEN to formic_acid_dimer.molden                                                        

 Molecular orbitals read from record     2100.2  Type=RHF/CANONICAL  
 Occupation numbers read from record     2100.2  Type=RHF/RHF  
 Orbital energies read from record       2100.2  Type=RHF/CANONICAL  
 Redundancy group numbers read from rec  2100.2  Type=RHF/RHF  

 DUMP ORBITAL  1.1 AS ORBITAL    1  occ=    2.0000  eig=  -20.6082  GROUP=   2
 DUMP ORBITAL  1.3 AS ORBITAL    2  occ=    2.0000  eig=  -20.6082  GROUP=   2
 DUMP ORBITAL  2.3 AS ORBITAL    3  occ=    2.0000  eig=  -20.5635  GROUP=   2
 DUMP ORBITAL  2.1 AS ORBITAL    4  occ=    2.0000  eig=  -20.5635  GROUP=   2
 DUMP ORBITAL  3.3 AS ORBITAL    5  occ=    2.0000  eig=  -11.3962  GROUP=   2
 DUMP ORBITAL  3.1 AS ORBITAL    6  occ=    2.0000  eig=  -11.3962  GROUP=   2
 DUMP ORBITAL  4.1 AS ORBITAL    7  occ=    2.0000  eig=   -1.4975  GROUP=   2
 DUMP ORBITAL  4.3 AS ORBITAL    8  occ=    2.0000  eig=   -1.4892  GROUP=   2
 DUMP ORBITAL  5.3 AS ORBITAL    9  occ=    2.0000  eig=   -1.3937  GROUP=   2
 DUMP ORBITAL  5.1 AS ORBITAL   10  occ=    2.0000  eig=   -1.3849  GROUP=   2
 DUMP ORBITAL  6.1 AS ORBITAL   11  occ=    2.0000  eig=   -0.9191  GROUP=   2
 DUMP ORBITAL  6.3 AS ORBITAL   12  occ=    2.0000  eig=   -0.8947  GROUP=   2
 DUMP ORBITAL  7.3 AS ORBITAL   13  occ=    2.0000  eig=   -0.7599  GROUP=   2
 DUMP ORBITAL  7.1 AS ORBITAL   14  occ=    2.0000  eig=   -0.7399  GROUP=   2
 DUMP ORBITAL  8.3 AS ORBITAL   15  occ=    2.0000  eig=   -0.7305  GROUP=   2
 DUMP ORBITAL  8.1 AS ORBITAL   16  occ=    2.0000  eig=   -0.7043  GROUP=   2
 DUMP ORBITAL  1.2 AS ORBITAL   17  occ=    2.0000  eig=   -0.6501  GROUP=   2
 DUMP ORBITAL  1.4 AS ORBITAL   18  occ=    2.0000  eig=   -0.6431  GROUP=   2
 DUMP ORBITAL  9.1 AS ORBITAL   19  occ=    2.0000  eig=   -0.6147  GROUP=   2
 DUMP ORBITAL  9.3 AS ORBITAL   20  occ=    2.0000  eig=   -0.5823  GROUP=   2
 DUMP ORBITAL  2.4 AS ORBITAL   21  occ=    2.0000  eig=   -0.5033  GROUP=   2
 DUMP ORBITAL  2.2 AS ORBITAL   22  occ=    2.0000  eig=   -0.4958  GROUP=   2
 DUMP ORBITAL 10.1 AS ORBITAL   23  occ=    2.0000  eig=   -0.4909  GROUP=   2
 DUMP ORBITAL 10.3 AS ORBITAL   24  occ=    2.0000  eig=   -0.4707  GROUP=   2

 Total charge:      48.000000
 Frequency information read from record  5400.2

 **********************************************************************************************************************************

 HF/6-311G(D,P)//HF/6-311G(D,P) energy=   -377.664112413905

    OPTG(HF-SCF)          HF-SCF
   -377.66411241   -377.65680067
 **********************************************************************************************************************************
 Molpro calculation terminated
