[Molden Format]
[Molpro variables]
_NUMVAR=  1083.000000000000    
_AVOGAD= 0.6022140760000000E+24
_BOLTZ= 0.1380649000000000E-22
_CLIGHTSI=  299792458.0000000    
_JOULE= 0.4359744722207100E-17
_JPCAL=  4.184000000000000    
_PLANCK= 0.6626070150000000E-33
_BOHR= 0.5291772109030000E-10
_ECHARG= 0.1602176634000000E-18
_ENULL= 0.8854187812800001E-11
_MU= 0.1660539066600000E-26
_EMASS= 0.9109383701500001E-30
_AMU2AU=  1822.888486217313    
_CLIGHT=  29979245800.00000    
_EV= 0.3674932217565494E-01
_KJOULE= 0.3808798847133432E-03
_KJOULE/MOL= 0.3808798847133432E-03
_CM= 0.4556335252912009E-05
_CM-1= 0.4556335252912009E-05
_DEB2SI= 0.3335640951981520E-29
_KCAL= 0.1593601437640628E-02
_KCAL/MOL= 0.1593601437640628E-02
_KELVIN= 0.3166811563455608E-05
_HERTZ= 0.1519829846057038E-15
_HZ= 0.1519829846057038E-15
_TOA= 0.5291772109030000    
_TOANG= 0.5291772109030000    
_TORAD= 0.1745329251994330E-01
_TOCM=  219474.6313631965    
_TODEBYE=  2.541746473194078    
_TOE= 0.4803204712570263E-09
_TOEV=  27.21138624598803    
_TOHERTZ=  6579683920501656.    
_TOHZ=  6579683920501656.    
_TOK=  315775.0248040668    
_TOKCAL=  627.5094740630558    
_TOKELVIN=  315775.0248040668    
_TOKJ=  2625.499639479825    
_TOKJOULE=  2625.499639479825    
_TOKG= 0.1660539066600000E-26
_ANG=  1.889726124625770    
_ANGSTROM=  1.889726124625770    
_RPAREF=  0.000000000000000    
_RPADISS=  0.000000000000000    
_IGNORE_UNDEF=  2.000000000000000    
_STRICTCHECK=  0.000000000000000    
!SEWARD=  0.000000000000000    
!MULTI=  0.000000000000000    
!DFMULTI=  0.000000000000000    
_SEW_ONEEL=  0.000000000000000    
_CPPDONE=FALSE
_DKROLL_DONE=  0.000000000000000    
_FNUC_DONE=  0.000000000000000    
_FOCKDONE=TRUE
_GRADONE=FALSE
_HESSDONE=TRUE
_INTDONE=TRUE
_SCFDONE=TRUE
_MODUL_BLOCK=FALSE
_MODUL_SLATER=FALSE
_MODUL_MRCC=FALSE
_MODUL_NBO6=FALSE
_MODUL_NECI=FALSE
_MODUL_AIMS=TRUE
_MODUL_HDF5=FALSE
_MODUL_GECCO=FALSE
_ISWINDOWS=FALSE
_MRCC_EXEC=
_FITC_AO_SAVED=FALSE
_FITC_MO_SAVED=FALSE
_SHARED_FS=TRUE
_LSTYP=SEWARD
_INTYP=INTS
_GEOMTYP=ZMAT
_GRADTYP=ALASKA
_DIRECT=FALSE
_DKHO= -1.000000000000000    
_FNUC=  0.000000000000000    
_SYNCM=  0.000000000000000    
_BASIS=6-311G(D,P)
_ZCENTRE=MASS
_ZORIENT=  1.000000000000000    
_NELEC=  48.00000000000000    
!SPIN=  0.000000000000000    
_OPTCONV= 0.3614618645899653E-05
_QSDSTEP=  0.000000000000000    
_QSDIRC=  0.000000000000000    
_PROGRAM=FREQ
_CPUSTEP=  280.5900000000000    
_SYSSTEP=  2.310000000000000    
_WALLSTEP=  149.3300000000000    
!DFSCF=  0.000000000000000    
!SCSGRD=  0.000000000000000    
_NCEN=  10.00000000000000    
_CPUTOT=  398.1200000000000    
_DFTEXFAC=  1.000000000000000    
_DMX=  0.000000000000000    
_DMY=  0.000000000000000    
_DMZ=  0.000000000000000    
_DMX_SCF=  0.000000000000000    
_DMY_SCF=  0.000000000000000    
_DMZ_SCF=  0.000000000000000    
_FREQUENCIES= 0.2035664621058205E-04
_HOMO=  10.30000000000000    
_EHOMO=-0.4706767244139956    
_LUMO=  3.200000000000000    
_ELUMO= 0.1701529328345250    
_ENERGY= -377.6641124139052    
_ENERGY_METHOD=HF
_ENERGY_BASIS=6-311G(D,P)
_GEOMETRY_METHOD=HF
_GEOMETRY_BASIS=6-311G(D,P)
_ENUC=  235.1468728342003    
_GRADENERG= -377.6641124139232    
_GRADEXFAC=  9999.000000000000    
_GRADMETHOD=  1.000000000000000    
_NMRMETHOD=  0.000000000000000    
_NMRMAGNET=  0.000000000000000    
_VIRIAL= 0.1474203664226830E-07
!GRID_FREEZE= -1.000000000000000    
!NEESE_INDEX=  0.000000000000000    
_ITERATIONS=  11.00000000000000    
_LASTNELEC=  48.00000000000000    
_LASTSPIN=  0.000000000000000    
_LASTSYM=  1.000000000000000    
_MPP_PROG=  1.000000000000000    
_MSNSTATES=  0.000000000000000    
_RS2PHASE=  0.000000000000000    
_IPROC_MPP=  0.000000000000000    
_IPROC_MPPX=  0.000000000000000    
_NPROC_MPP=  6.000000000000000    
_NPROC_MPPX=  6.000000000000000    
_NPROC_SMP=  6.000000000000000    
_NUMSTEP=  0.000000000000000    
_OPTCONVMX= 0.3583328255007956E-05
_OPTCONVRMS= 0.1143042766485446E-05
_OPTGRAD= 0.5217215603048316E-07
_OPTGRADMX= 0.3064720657617609E-07
_OPTGRADRMS= 0.2173839834603465E-08
_OPTSTEP=  17.00000000000000    
_ORBITAL=  2100.200000000000    
_PI=  3.141592653589793    
_SEIG_MIN= 0.7155870736300275E-02
_SEWPROP=TRUE
_STATUS=  1.000000000000000    
_SYSTOT=  5.010000000000000    
_VERSION=  2022003.000000000    
_WALLTOT=  222.8500000000000    
_ZPE= 0.7695046615715476E-01
_DATE=21-Aug-25
_LASTORB=0
_OUTPUT=/home/lme/overlap_integral_gaussian/molpro_files/fad/fad.out
_PGROUP=C2h
_TIME=20:40:09
_LIBMOL=/usr/local/molpro/molpro_2022.3.0_sockets/lib/
_VIGRDC=  0.000000000000000    
!VIBCNT=  0.000000000000000    
!RGHFCNT=  0.000000000000000    
!SURFREC=  0.000000000000000    
!XSURFREC=  0.000000000000000    
!XPOLYREC=  0.000000000000000    
!ROTREC=  0.000000000000000    
!POLYREC=  0.000000000000000    
!DIPREC=  0.000000000000000    
!DIP4DREC=  0.000000000000000    
!DIPROT=  0.000000000000000    
!DIP4DROT=  0.000000000000000    
!PTREC=  0.000000000000000    
!PT4DREC=  0.000000000000000    
!VSCFREC=  0.000000000000000    
!VCIREC=  0.000000000000000    
!PVCIREC=  0.000000000000000    
!VMP2REC=  0.000000000000000    
!VMCSCFREC=  0.000000000000000    
!VMRCIREC=  0.000000000000000    
!VIBSTATEREC=  0.000000000000000    
!VIBSTATECNT=  0.000000000000000    
!VIBINFO=  0.000000000000000    
!GAREC=  0.000000000000000    
!SCFORB=  21002.00000000000    
!DEFCORE=  3.000000000000000    
!SCORE=  0.000000000000000    
!NEWMOL=  0.000000000000000    
!NEWSYM=  0.000000000000000    
_SLFILES=slscratch
_NGSSTO=  9.000000000000000    
_SIN=SIN
_COS=COS
_TAN=TAN
_ACOS=ACOS
_ASIN=ASIN
_ATAN=ATAN
_COSH=COSH
_SINH=SINH
_TANH=TANH
_ABS=ABS
_MOD=MOD
_ERF=ERF
_REFC=REFC
_ERFC=ERFC
_HYPOT=HYPOT
_J0=J0
_J1=J1
_JN=JN
_GAMMA=GAMMA
_LGAMMA=LGAMMA
_Y0=Y0
_Y1=Y1
_YN=YN
_EXP=EXP
_LOG=LOG
_LOG10=LOG10
_SQRT=SQRT
_INT=INT
_NINT=NINT
_MAX=MAX
_MIN=MIN
_COSMO=  0.000000000000000    
_COSMOIT=  0.000000000000000    
_COSMOES=  0.000000000000000    
_COSMOEDS=  0.000000000000000    
_COSMOEC=  0.000000000000000    
_COSMOEDCORR=  0.000000000000000    
_FEPSI=  1.000000000000000    
_SL_IsMM=  0.000000000000000    
_SL_NSYM=  4.000000000000000    
_SL_System_BitSw=  0.000000000000000    
_SL_Unique_atoms=  0.000000000000000    
_SL_GRAD=  0.000000000000000    
_SL_MAXUPD_Hess=  5.000000000000000    
_SL_N_PRINT_COD=  5.000000000000000    
_SL_PRINT_CODES=  0.000000000000000    
_SL_BasType=  0.000000000000000    
_SL_Energy_Pred=  0.000000000000000    
_SL_New_Coords=  0.000000000000000    
_SL_Total_Nuclea=  0.000000000000000    
_SL_Highest_Mltp=  0.000000000000000    
_SL_Ref_Geom=  0.000000000000000    
_SL_Symmetry_ope=  1.000000000000000    
_SL_agrad=  0.000000000000000    
_SL_GrdMax=  0.000000000000000    
_SL_GrdNorm=  0.000000000000000    
_SL_GrdRMS=  0.000000000000000    
_SL_Hss_Q=  0.000000000000000    
_SL_Hss_X=  0.000000000000000    
_SL_BMxOld=  0.000000000000000    
_SL_KtB=  0.000000000000000    
_SL_TROld=  0.000000000000000    
_SL_No_of_Intern=  0.000000000000000    
_SL_Hess=  0.000000000000000    
_SL_K=  0.000000000000000    
!LATTICE= -1.000000000000000    
!NEWLATTICE=  0.000000000000000    
!LATGRAD_VAR=FALSE
!SEW_LATTICE=  1.000000000000000    
!AIC_ONEEL=  0.000000000000000    
!LOCAL=  0.000000000000000    
!SAVEDOM= -1.000000000000000    
!RESTDOM= -1.000000000000000    
!SAVEDOM_HF= -1.000000000000000    
!RESTDOM_HF= -1.000000000000000    
!HESSREC=  5300.200000000000    
!FREQREC=  5400.200000000000    
!NMODREC=  5450.200000000000    
!GTASKS=  0.000000000000000    
!HTASKS=  0.000000000000000    
!SAVEDOM_EOM= -1.000000000000000    
!RESTDOM_EOM= -1.000000000000000    
!GRADSTATE= -1.000000000000000    
!DEBUG=  0.000000000000000    
!CFIT_CPHF=  0.000000000000000    
!RDOMAUX_CPHF=  0.000000000000000    
!THRAO_CPHF= 0.1000000000000000E-11
!THRMO_CPHF= 0.1000000000000000E-11
!THROV_CPHF= 0.1000000000000000E-11
!THRSW_CPHF= 0.1000000000000000E-11
!THRPROD_CPHF= 0.1000000000000000E-11
!THRAOPR_CPHF= 0.1000000000000000E-11
!CFIT_SCFGRD=  0.000000000000000    
!RDOMAUX_SCFGRD=  0.000000000000000    
!THRAO_SCFGRD= 0.1000000000000000E-11
!THRMO_SCFGRD= 0.1000000000000000E-11
!THROV_SCFGRD= 0.1000000000000000E-11
!THRSW_SCFGRD= 0.1000000000000000E-11
!THRPROD_SCFGRD= 0.1000000000000000E-11
!THRAOPR_SCFGRD= 0.1000000000000000E-11
!LOCFIT_SCF=  0.000000000000000    
!LOCFIT_MP2=  0.000000000000000    
_RIDOM=  0.000000000000000    
!CC2_METHOD=  0.000000000000000    
_BASIS2006=FALSE
_SVDDEL= -1.000000000000000    
_SVDDELA= -1.000000000000000    
_SVDDELP= -1.000000000000000    
_SVDDELF= -1.000000000000000    
_SVDDELS= -1.000000000000000    
_SVDDEL_ABS= -1.000000000000000    
_SVDDELA_ABS= -1.000000000000000    
_SVDDELP_ABS= -1.000000000000000    
_SVDDELF_ABS= -1.000000000000000    
_SVDDELS_ABS= -1.000000000000000    
_MAXBASIS=  0.000000000000000    
!OPT_CONICAL=  0.000000000000000    
!CLEARSP_JGRID=  0.000000000000000    
_GRDHYBR=  0.000000000000000    
_STATEGRAD=  1.000000000000000    
_4EXT_NDISKS=  1.000000000000000    
!EMBEDFLAG=  1.000000000000000    
!EMBED=FALSE
!EMBED_F12=FALSE
!EMBEDNUC=  0.000000000000000    
_EMBEDENERGY=  0.000000000000000    
!EMBED_DFC=FALSE
!NUM_VOIDS=  0.000000000000000    
_IBODY=  0.000000000000000    
_EMBE_CORR=  0.000000000000000    
!EMBED_PROJ=FALSE
!EMB_PROJ_ZMU=  1000000.000000000    
!CORRECTION_HF=  0.000000000000000    
!EMBED_AORB=  0.000000000000000    
!EMBED_NACORR=  0.000000000000000    
!EMBED_MP2=FALSE
!EMBED_TRUNC_PERTURBATION=FALSE
!EMBED_FROZEN=  0.000000000000000    
!EMBED_ACTIVE=  0.000000000000000    
_CHANGE_BASIS=FALSE
_RESTORE_BASIS=FALSE
_FIX_EMBED_GUESS=FALSE
_EMBED_SCF=FALSE
_HUZINAGA_T=FALSE
_HUZINAGA_F=FALSE
_HUZINAGA=FALSE
_HUZINAGA_CORRECT=FALSE
!FASTLATGRAD=  1.000000000000000    
!FASTVLAMBDA= -1.000000000000000    
!IFORCE= -1.000000000000000    
!USESYM= -1.000000000000000    
_SINDEX=  0.000000000000000    
_AVDOM_OSV=  0.000000000000000    
_AVDOM_PNO=  0.000000000000000    
_AVDOM_PAO=  0.000000000000000    
_AVDOM_LMO=  0.000000000000000    
_CC2OSV_FLAG=  0.000000000000000    
_EOMCCSD_CONV=FALSE
_TMADC2_FLAG=FALSE
_PROPADC2_FLAG=FALSE
_LEN_VirQ=  0.000000000000000    
_GRDCC2LR_FLAG=FALSE
_GRDADC2_FLAG=FALSE
_RO_VGLOBAL=  0.000000000000000    
_OPT=FALSE
_FREQ=FALSE
_HESS=FALSE
_CMRCC_callName=EMPTY
_CMRCC_callCount=  0.000000000000000    
_GECCO_CIROOT=  1.000000000000000    
_SYM_CATION=  3.000000000000000    
_MON_A=FALSE
_MON_B=FALSE
GX1=  0.000000000000000    
GY1= -1.939480274424567    
GZ1=-0.2266447200592624    
GX2=  0.000000000000000    
GY2= -1.627687175600445    
GZ2=  1.033320460894615    
GX3=  0.000000000000000    
GY3= -1.171694476003654    
GZ3= -1.135663047437772    
GX4=  0.000000000000000    
GY4= -3.014821111613766    
GZ4=-0.3711738206567895    
GX5=  0.000000000000000    
GY5=-0.6754192114215603    
GZ5=  1.151873137027094    
GX6=  0.000000000000000    
GY6=  1.939480274424567    
GZ6= 0.2266447200592624    
GX7=  0.000000000000000    
GY7=  1.627687175600445    
GZ7= -1.033320460894615    
GX8=  0.000000000000000    
GY8=  1.171694476003654    
GZ8=  1.135663047437772    
GX9=  0.000000000000000    
GY9=  3.014821111613766    
GZ9= 0.3711738206567895    
GX10=  0.000000000000000    
GY10= 0.6754192114215603    
GZ10= -1.151873137027094    
CX1=  0.000000000000000    
CY1= -3.665086542776463    
CZ1=-0.4282964485044825    
OX2=  0.000000000000000    
OY2= -3.075882978450494    
OZ2=  1.952692670062895    
OX3=  0.000000000000000    
OY3= -2.214181661383807    
OZ3= -2.146092129515274    
HX4=  0.000000000000000    
HY4= -5.697186215689839    
HZ4=-0.7014168656722954    
HX5=  0.000000000000000    
HY5= -1.276357328897459    
HZ5=  2.176724759294738    
CX6=  0.000000000000000    
CY6=  3.665086542776463    
CZ6= 0.4282964485044825    
OX7=  0.000000000000000    
OY7=  3.075882978450494    
OZ7= -1.952692670062895    
OX8=  0.000000000000000    
OY8=  2.214181661383807    
OZ8=  2.146092129515274    
HX9=  0.000000000000000    
HY9=  5.697186215689839    
HZ9= 0.7014168656722954    
HX10=  0.000000000000000    
HY10=  1.276357328897459    
HZ10= -2.176724759294738    
[Atoms] Angs
C     1    6         0.0000000000       -1.9394802744       -0.2266447201
O     2    8         0.0000000000       -1.6276871756        1.0333204609
O     3    8         0.0000000000       -1.1716944760       -1.1356630474
H     4    1         0.0000000000       -3.0148211116       -0.3711738207
H     5    1         0.0000000000       -0.6754192114        1.1518731370
C     6    6         0.0000000000        1.9394802744        0.2266447201
O     7    8         0.0000000000        1.6276871756       -1.0333204609
O     8    8         0.0000000000        1.1716944760        1.1356630474
H     9    1         0.0000000000        3.0148211116        0.3711738207
H    10    1         0.0000000000        0.6754192114       -1.1518731370
[GTO]
   1 0
 s    6  1.00
  0.4563240000D+04  0.1966650249D-02
  0.6820240000D+03  0.1523060193D-01
  0.1549730000D+03  0.7612690966D-01
  0.4445530000D+02  0.2608010331D+00
  0.1302900000D+02  0.6164620782D+00
  0.1827730000D+01  0.2210060280D+00
 s    3  1.00
  0.2096420000D+02  0.1146600807D+00
  0.4803310000D+01  0.9199996477D+00
  0.1459330000D+01 -0.3030682134D-02
 s    1  1.00
  0.4834560000D+00  0.1000000000D+01
 s    1  1.00
  0.1455850000D+00  0.1000000000D+01
 p    3  1.00
  0.2096420000D+02  0.4024869267D-01
  0.4803310000D+01  0.2375939567D+00
  0.1459330000D+01  0.8158538515D+00
 p    1  1.00
  0.4834560000D+00  0.1000000000D+01
 p    1  1.00
  0.1455850000D+00  0.1000000000D+01
 d    1  1.00
  0.6260000000D+00  0.1000000000D+01
  
   6 0
 s    6  1.00
  0.4563240000D+04  0.1966650249D-02
  0.6820240000D+03  0.1523060193D-01
  0.1549730000D+03  0.7612690966D-01
  0.4445530000D+02  0.2608010331D+00
  0.1302900000D+02  0.6164620782D+00
  0.1827730000D+01  0.2210060280D+00
 s    3  1.00
  0.2096420000D+02  0.1146600807D+00
  0.4803310000D+01  0.9199996477D+00
  0.1459330000D+01 -0.3030682134D-02
 s    1  1.00
  0.4834560000D+00  0.1000000000D+01
 s    1  1.00
  0.1455850000D+00  0.1000000000D+01
 p    3  1.00
  0.2096420000D+02  0.4024869267D-01
  0.4803310000D+01  0.2375939567D+00
  0.1459330000D+01  0.8158538515D+00
 p    1  1.00
  0.4834560000D+00  0.1000000000D+01
 p    1  1.00
  0.1455850000D+00  0.1000000000D+01
 d    1  1.00
  0.6260000000D+00  0.1000000000D+01
  
   2 0
 s    6  1.00
  0.8588500000D+04  0.1895150083D-02
  0.1297230000D+04  0.1438590063D-01
  0.2992960000D+03  0.7073200310D-01
  0.8737710000D+02  0.2400010105D+00
  0.2567890000D+02  0.5947970261D+00
  0.3740040000D+01  0.2808020123D+00
 s    3  1.00
  0.4211750000D+02  0.1138890124D+00
  0.9628370000D+01  0.9208111006D+00
  0.2853320000D+01 -0.3274470358D-02
 s    1  1.00
  0.9056610000D+00  0.1000000000D+01
 s    1  1.00
  0.2556110000D+00  0.1000000000D+01
 p    3  1.00
  0.4211750000D+02  0.3651139738D-01
  0.9628370000D+01  0.2371529830D+00
  0.2853320000D+01  0.8197019412D+00
 p    1  1.00
  0.9056610000D+00  0.1000000000D+01
 p    1  1.00
  0.2556110000D+00  0.1000000000D+01
 d    1  1.00
  0.1292000000D+01  0.1000000000D+01
  
   7 0
 s    6  1.00
  0.8588500000D+04  0.1895150083D-02
  0.1297230000D+04  0.1438590063D-01
  0.2992960000D+03  0.7073200310D-01
  0.8737710000D+02  0.2400010105D+00
  0.2567890000D+02  0.5947970261D+00
  0.3740040000D+01  0.2808020123D+00
 s    3  1.00
  0.4211750000D+02  0.1138890124D+00
  0.9628370000D+01  0.9208111006D+00
  0.2853320000D+01 -0.3274470358D-02
 s    1  1.00
  0.9056610000D+00  0.1000000000D+01
 s    1  1.00
  0.2556110000D+00  0.1000000000D+01
 p    3  1.00
  0.4211750000D+02  0.3651139738D-01
  0.9628370000D+01  0.2371529830D+00
  0.2853320000D+01  0.8197019412D+00
 p    1  1.00
  0.9056610000D+00  0.1000000000D+01
 p    1  1.00
  0.2556110000D+00  0.1000000000D+01
 d    1  1.00
  0.1292000000D+01  0.1000000000D+01
  
   3 0
 s    6  1.00
  0.8588500000D+04  0.1895150083D-02
  0.1297230000D+04  0.1438590063D-01
  0.2992960000D+03  0.7073200310D-01
  0.8737710000D+02  0.2400010105D+00
  0.2567890000D+02  0.5947970261D+00
  0.3740040000D+01  0.2808020123D+00
 s    3  1.00
  0.4211750000D+02  0.1138890124D+00
  0.9628370000D+01  0.9208111006D+00
  0.2853320000D+01 -0.3274470358D-02
 s    1  1.00
  0.9056610000D+00  0.1000000000D+01
 s    1  1.00
  0.2556110000D+00  0.1000000000D+01
 p    3  1.00
  0.4211750000D+02  0.3651139738D-01
  0.9628370000D+01  0.2371529830D+00
  0.2853320000D+01  0.8197019412D+00
 p    1  1.00
  0.9056610000D+00  0.1000000000D+01
 p    1  1.00
  0.2556110000D+00  0.1000000000D+01
 d    1  1.00
  0.1292000000D+01  0.1000000000D+01
  
   8 0
 s    6  1.00
  0.8588500000D+04  0.1895150083D-02
  0.1297230000D+04  0.1438590063D-01
  0.2992960000D+03  0.7073200310D-01
  0.8737710000D+02  0.2400010105D+00
  0.2567890000D+02  0.5947970261D+00
  0.3740040000D+01  0.2808020123D+00
 s    3  1.00
  0.4211750000D+02  0.1138890124D+00
  0.9628370000D+01  0.9208111006D+00
  0.2853320000D+01 -0.3274470358D-02
 s    1  1.00
  0.9056610000D+00  0.1000000000D+01
 s    1  1.00
  0.2556110000D+00  0.1000000000D+01
 p    3  1.00
  0.4211750000D+02  0.3651139738D-01
  0.9628370000D+01  0.2371529830D+00
  0.2853320000D+01  0.8197019412D+00
 p    1  1.00
  0.9056610000D+00  0.1000000000D+01
 p    1  1.00
  0.2556110000D+00  0.1000000000D+01
 d    1  1.00
  0.1292000000D+01  0.1000000000D+01
  
   4 0
 s    3  1.00
  0.3386500000D+02  0.2549381454D-01
  0.5094790000D+01  0.1903731086D+00
  0.1158790000D+01  0.8521614860D+00
 s    1  1.00
  0.3258400000D+00  0.1000000000D+01
 s    1  1.00
  0.1027410000D+00  0.1000000000D+01
 p    1  1.00
  0.7500000000D+00  0.1000000000D+01
  
   9 0
 s    3  1.00
  0.3386500000D+02  0.2549381454D-01
  0.5094790000D+01  0.1903731086D+00
  0.1158790000D+01  0.8521614860D+00
 s    1  1.00
  0.3258400000D+00  0.1000000000D+01
 s    1  1.00
  0.1027410000D+00  0.1000000000D+01
 p    1  1.00
  0.7500000000D+00  0.1000000000D+01
  
   5 0
 s    3  1.00
  0.3386500000D+02  0.2549381454D-01
  0.5094790000D+01  0.1903731086D+00
  0.1158790000D+01  0.8521614860D+00
 s    1  1.00
  0.3258400000D+00  0.1000000000D+01
 s    1  1.00
  0.1027410000D+00  0.1000000000D+01
 p    1  1.00
  0.7500000000D+00  0.1000000000D+01
  
  10 0
 s    3  1.00
  0.3386500000D+02  0.2549381454D-01
  0.5094790000D+01  0.1903731086D+00
  0.1158790000D+01  0.8521614860D+00
 s    1  1.00
  0.3258400000D+00  0.1000000000D+01
 s    1  1.00
  0.1027410000D+00  0.1000000000D+01
 p    1  1.00
  0.7500000000D+00  0.1000000000D+01


[MO]
 Sym=      1.1
 Ene=     -20.6082
 Spin= Alpha
 Occup=    2.000000
1 -0.000002181431948
2 -0.000027926112344
3 0.000121561625157
4 0.000214324334469
5 0.0
6 0.000002138369034
7 0.000035891990556
8 0.0
9 0.000080300430634
10 0.000213231585520
11 0.0
12 -0.000067524869046
13 0.000292921114220
14 -0.000016976221587
15 -0.000034429766164
16 0.000051405987751
17 0.0
18 0.0
19 0.000086590850926
20 -0.000002181431948
21 -0.000027926112344
22 0.000121561625157
23 0.000214324334469
24 0.0
25 -0.000002138369034
26 -0.000035891990556
27 0.0
28 -0.000080300430634
29 -0.000213231585520
30 0.0
31 0.000067524869046
32 -0.000292921114220
33 -0.000016976221587
34 -0.000034429766164
35 0.000051405987751
36 0.0
37 0.0
38 0.000086590850926
39 0.38991127136814
40 0.33350495661818
41 0.004094455466907
42 -0.000758433344435
43 0.0
44 0.000665750978492
45 -0.000932913209549
46 0.0
47 -0.000238052979450
48 0.000311392732909
49 0.0
50 0.000080812704042
51 0.000082641463192
52 0.000024840383796
53 0.000006060375612
54 -0.000030900759407
55 0.0
56 0.0
57 -0.000036726201118
58 0.38991127136814
59 0.33350495661818
60 0.004094455466907
61 -0.000758433344435
62 0.0
63 -0.000665750978492
64 0.000932913209549
65 0.0
66 0.000238052979450
67 -0.000311392732909
68 0.0
69 -0.000080812704042
70 -0.000082641463192
71 0.000024840383796
72 0.000006060375612
73 -0.000030900759407
74 0.0
75 0.0
76 -0.000036726201118
77 -0.000193218963922
78 -0.000167602660046
79 0.000015575199249
80 0.000087011623852
81 0.0
82 -0.000008517957076
83 -0.000010829229813
84 0.0
85 0.000011693205404
86 0.000023860833541
87 0.0
88 -0.000144186078241
89 -0.000028150904675
90 -0.000002631159756
91 0.000004986747666
92 -0.000002355587910
93 0.0
94 0.0
95 -0.000014303359894
96 -0.000193218963922
97 -0.000167602660046
98 0.000015575199249
99 0.000087011623852
100 0.0
101 0.000008517957076
102 0.000010829229813
103 0.0
104 -0.000011693205404
105 -0.000023860833541
106 0.0
107 0.000144186078241
108 0.000028150904675
109 -0.000002631159756
110 0.000004986747666
111 -0.000002355587910
112 0.0
113 0.0
114 -0.000014303359894
115 0.000007827636233
116 -0.000043604234514
117 -0.000022984153282
118 0.0
119 0.000012197236771
120 -0.000012803860302
121 0.000007827636233
122 -0.000043604234514
123 -0.000022984153282
124 0.0
125 -0.000012197236771
126 0.000012803860302
127 0.000120572511882
128 0.000102066278665
129 0.000124464120035
130 0.0
131 -0.000021244215597
132 -0.000046293217111
133 0.000120572511882
134 0.000102066278665
135 0.000124464120035
136 0.0
137 0.000021244215597
138 0.000046293217111
 Sym=      1.3
 Ene=     -20.6082
 Spin= Alpha
 Occup=    2.000000
1 -0.000002141863348
2 -0.000027440018401
3 0.000132745956471
4 0.000306186370444
5 0.0
6 0.000007924596968
7 0.000040191867123
8 0.0
9 0.000065358338990
10 0.000190113074917
11 0.0
12 0.000032610212184
13 0.000210443210658
14 -0.000021341441892
15 -0.000042169965668
16 0.000063511407559
17 0.0
18 0.0
19 0.000091656198117
20 0.000002141863348
21 0.000027440018401
22 -0.000132745956471
23 -0.000306186370444
24 0.0
25 0.000007924596968
26 0.000040191867123
27 0.0
28 0.000065358338990
29 0.000190113074917
30 0.0
31 0.000032610212184
32 0.000210443210658
33 0.000021341441892
34 0.000042169965668
35 -0.000063511407559
36 0.0
37 0.0
38 -0.000091656198117
39 0.38991133851935
40 0.33350592184514
41 0.004089768863932
42 -0.000755200909979
43 0.0
44 0.000664628781782
45 -0.000932800416005
46 0.0
47 -0.000235315769122
48 0.000312410969775
49 0.0
50 0.000044467302911
51 0.000079369827174
52 0.000026777087374
53 0.000002728499149
54 -0.000029505586523
55 0.0
56 0.0
57 -0.000037274680084
58 -0.38991133851935
59 -0.33350592184514
60 -0.004089768863932
61 0.000755200909979
62 0.0
63 0.000664628781782
64 -0.000932800416005
65 0.0
66 -0.000235315769122
67 0.000312410969775
68 0.0
69 0.000044467302911
70 0.000079369827174
71 -0.000026777087374
72 -0.000002728499149
73 0.000029505586523
74 0.0
75 0.0
76 0.000037274680084
77 -0.000130655389206
78 -0.000113045027624
79 0.000009143128324
80 0.000043984451652
81 0.0
82 0.000005082512739
83 -0.000012633512967
84 0.0
85 -0.000024521790248
86 0.000033614489961
87 0.0
88 0.000017171354435
89 -0.000076208507044
90 -0.000004850444666
91 0.000007854499887
92 -0.000003004055222
93 0.0
94 0.0
95 -0.000009051614781
96 0.000130655389206
97 0.000113045027624
98 -0.000009143128324
99 -0.000043984451652
100 0.0
101 0.000005082512739
102 -0.000012633512967
103 0.0
104 -0.000024521790248
105 0.000033614489961
106 0.0
107 0.000017171354435
108 -0.000076208507044
109 0.000004850444666
110 -0.000007854499887
111 0.000003004055222
112 0.0
113 0.0
114 0.000009051614781
115 0.000002415338438
116 -0.000022276971074
117 -0.000000258590222
118 0.0
119 0.000011614549625
120 -0.000002830594533
121 -0.000002415338438
122 0.000022276971074
123 0.000000258590222
124 0.0
125 0.000011614549625
126 -0.000002830594533
127 0.000134479773238
128 0.000072116872702
129 0.000154014895075
130 0.0
131 -0.000041076527024
132 -0.000043439117808
133 -0.000134479773238
134 -0.000072116872702
135 -0.000154014895075
136 0.0
137 -0.000041076527024
138 -0.000043439117808
 Sym=      2.3
 Ene=     -20.5635
 Spin= Alpha
 Occup=    2.000000
1 0.000002075951055
2 -0.000042338443390
3 0.000168716711119
4 0.000362267299192
5 0.0
6 0.000050517603839
7 -0.000055673620977
8 0.0
9 0.000130425955981
10 -0.000138116153306
11 0.0
12 0.000324031118414
13 -0.000101867378380
14 -0.000035929292407
15 0.000016830657720
16 0.000019098634687
17 0.0
18 0.0
19 -0.000094024905485
20 -0.000002075951055
21 0.000042338443390
22 -0.000168716711119
23 -0.000362267299192
24 0.0
25 0.000050517603839
26 -0.000055673620977
27 0.0
28 0.000130425955981
29 -0.000138116153306
30 0.0
31 0.000324031118414
32 -0.000101867378380
33 0.000035929292407
34 -0.000016830657720
35 -0.000019098634687
36 0.0
37 0.0
38 0.000094024905485
39 0.000132199698980
40 0.000116047984401
41 -0.000009985241235
42 -0.000047496066372
43 0.0
44 0.000002954521243
45 0.000012391089692
46 0.0
47 -0.000019023895909
48 -0.000028087246330
49 0.0
50 -0.000051616417716
51 0.000099639045926
52 0.000006489692024
53 -0.000010971977297
54 0.000004482285273
55 0.0
56 0.0
57 -0.000000270963380
58 -0.000132199698980
59 -0.000116047984401
60 0.000009985241235
61 0.000047496066372
62 0.0
63 0.000002954521243
64 0.000012391089692
65 0.0
66 -0.000019023895909
67 -0.000028087246330
68 0.0
69 -0.000051616417716
70 0.000099639045926
71 -0.000006489692024
72 0.000010971977297
73 -0.000004482285273
74 0.0
75 0.0
76 0.000000270963380
77 0.38992279409167
78 0.33352293727431
79 0.003972786853139
80 -0.000677163828734
81 0.0
82 -0.000631414378271
83 0.000975191027717
84 0.0
85 0.000223501477406
86 -0.000312840060286
87 0.0
88 -0.000056694625547
89 -0.000030568938544
90 -0.000099524624216
91 0.000054786267993
92 0.000044738356223
93 0.0
94 0.0
95 0.000019684663561
96 -0.38992279409167
97 -0.33352293727431
98 -0.003972786853139
99 0.000677163828734
100 0.0
101 -0.000631414378271
102 0.000975191027717
103 0.0
104 0.000223501477406
105 -0.000312840060286
106 0.0
107 -0.000056694625547
108 -0.000030568938544
109 0.000099524624216
110 -0.000054786267993
111 -0.000044738356223
112 0.0
113 0.0
114 -0.000019684663561
115 -0.000010965632168
116 0.000057795125701
117 0.000068238971635
118 0.0
119 0.000004625208608
120 0.000013452712418
121 0.000010965632168
122 -0.000057795125701
123 -0.000068238971635
124 0.0
125 0.000004625208608
126 0.000013452712418
127 0.000016102035190
128 -0.000006489164651
129 -0.000152958812718
130 0.0
131 -0.000062706280470
132 0.000009776398970
133 -0.000016102035190
134 0.000006489164651
135 0.000152958812718
136 0.0
137 -0.000062706280470
138 0.000009776398970
 Sym=      2.1
 Ene=     -20.5635
 Spin= Alpha
 Occup=    2.000000
1 0.000002782342088
2 -0.000046204909558
3 0.000194643867432
4 0.000223420485487
5 0.0
6 0.000041816759308
7 -0.000057434491934
8 0.0
9 0.000174117203549
10 -0.000134157741075
11 0.0
12 0.000261287724344
13 -0.000192956212346
14 -0.000022696251824
15 0.000005420628446
16 0.000017275623378
17 0.0
18 0.0
19 -0.000086369472403
20 0.000002782342088
21 -0.000046204909558
22 0.000194643867432
23 0.000223420485487
24 0.0
25 -0.000041816759308
26 0.000057434491934
27 0.0
28 -0.000174117203549
29 0.000134157741075
30 0.0
31 -0.000261287724344
32 0.000192956212346
33 -0.000022696251824
34 0.000005420628446
35 0.000017275623378
36 0.0
37 0.0
38 -0.000086369472403
39 0.000196227561010
40 0.000164054397267
41 0.000042407292417
42 -0.000156334673848
43 0.0
44 -0.000009521536487
45 0.000002629521198
46 0.0
47 0.000026394307559
48 0.000007140512350
49 0.0
50 -0.000200026325436
51 0.000005026143770
52 0.000004686185158
53 -0.000006547803715
54 0.000001861618557
55 0.0
56 0.0
57 0.000005297749614
58 0.000196227561010
59 0.000164054397267
60 0.000042407292417
61 -0.000156334673848
62 0.0
63 0.000009521536487
64 -0.000002629521198
65 0.0
66 -0.000026394307559
67 -0.000007140512350
68 0.0
69 0.000200026325436
70 -0.000005026143770
71 0.000004686185158
72 -0.000006547803715
73 0.000001861618557
74 0.0
75 0.0
76 0.000005297749614
77 0.38992288031929
78 0.33352121427976
79 0.003988342047570
80 -0.000693877109158
81 0.0
82 -0.000632739363251
83 0.000972776964644
84 0.0
85 0.000224229928274
86 -0.000303748934455
87 0.0
88 -0.000060485012409
89 -0.000048387467911
90 -0.000095351413044
91 0.000051161498189
92 0.000044189914855
93 0.0
94 0.0
95 0.000018695311024
96 0.38992288031929
97 0.33352121427976
98 0.003988342047570
99 -0.000693877109158
100 0.0
101 0.000632739363251
102 -0.000972776964644
103 0.0
104 -0.000224229928274
105 0.000303748934455
106 0.0
107 0.000060485012409
108 0.000048387467911
109 -0.000095351413044
110 0.000051161498189
111 0.000044189914855
112 0.0
113 0.0
114 0.000018695311024
115 -0.000004473707288
116 0.000071573398587
117 0.000036639071436
118 0.0
119 0.000014448619961
120 0.000019636548374
121 -0.000004473707288
122 0.000071573398587
123 0.000036639071436
124 0.0
125 -0.000014448619961
126 -0.000019636548374
127 -0.000019229717488
128 0.000177942104561
129 0.000078365531069
130 0.0
131 0.000016389903780
132 0.000008049481694
133 -0.000019229717488
134 0.000177942104561
135 0.000078365531069
136 0.0
137 -0.000016389903780
138 -0.000008049481694
 Sym=      3.3
 Ene=     -11.3962
 Spin= Alpha
 Occup=    2.000000
1 0.39842391103257
2 0.32995549736077
3 0.002659321612989
4 0.000138355243406
5 0.0
6 0.000429133069205
7 0.000474799043989
8 0.0
9 -0.000096881150680
10 -0.000492991993903
11 0.0
12 0.000296825887648
13 -0.000016376932484
14 -0.000354835417665
15 0.000212909607694
16 0.000141925809971
17 0.0
18 0.0
19 -0.000230036574087
20 -0.39842391103257
21 -0.32995549736077
22 -0.002659321612989
23 -0.000138355243406
24 0.0
25 0.000429133069205
26 0.000474799043989
27 0.0
28 -0.000096881150680
29 -0.000492991993903
30 0.0
31 0.000296825887648
32 -0.000016376932484
33 0.000354835417665
34 -0.000212909607694
35 -0.000141925809971
36 0.0
37 0.0
38 0.000230036574087
39 -0.000083428076167
40 -0.000146209287708
41 0.000387495778051
42 -0.000082020170164
43 0.0
44 -0.000037790925902
45 -0.000131349811550
46 0.0
47 -0.000075997843942
48 -0.000419938914907
49 0.0
50 -0.000004455604438
51 0.000054813604024
52 -0.000043144248302
53 -0.000111806657768
54 0.000154950906070
55 0.0
56 0.0
57 0.000023272809707
58 0.000083428076167
59 0.000146209287708
60 -0.000387495778051
61 0.000082020170164
62 0.0
63 -0.000037790925902