
 Working directory              : /tmp/zwa/molpro.cVBhu9VCLD/
 Global scratch directory       : /tmp/zwa/molpro.cVBhu9VCLD/
 Wavefunction directory         : /home/zwa/wfu/
 Main file repository           : /tmp/zwa/molpro.cVBhu9VCLD/

 id        : liedlgroup

 Nodes     nprocs
 rh2-c724     1
 GA implementation: MPI file
 GA implementation (serial work in mppx): MPI file

 Using customized tuning parameters: mindgm=1; mindgv=20; mindgc=4; mindgr=1; noblas=0; minvec=7
 default implementation of scratch files=df  


 Variables initialized (1025), CPU time= 0.00 sec
  memory, 400, m
  orient,mass
  geometry = {
  C ,                -4.50325756 ,   0.24429967,    0.00000000
  C ,                -3.10809756,    0.24429967 ,   0.00000000
  C ,                -2.41055956 ,   1.45205067,    0.00000000
  C ,                -3.10821356,    2.66055967 ,  -0.00119900
  C ,                -4.50303856,    2.66048167,   -0.00167800
  C,                 -5.20063956,    1.45227567,   -0.00068200
  H ,                -5.05301656 ,  -0.70801733,    0.00045000
  H ,                -2.55858956,   -0.70821333,    0.00131500
  H  ,               -1.31087956 ,   1.45213067,    0.00063400
  H ,                -2.55801356 ,   3.61270267,   -0.00125800
  H,                 -5.05316056 ,   3.61276267 ,  -0.00263100
  H,                 -6.30024356 ,   1.45245867 ,  -0.00086200
  }
 
  mass, iso
  basis=6-311g(d,p)
 
  {hf
  start,atden}
 
  optg
  {frequencies, symm=auto, print=0,analytical}
  put,molden,benzene.molden
 Commands initialized (840), CPU time= 0.01 sec, 684 directives.
 Default parameters read. Elapsed time= 0.06 sec

 Checking input...
 Passed
1


                                         ***  PROGRAM SYSTEM MOLPRO  ***
                                       Copyright, TTI GmbH Stuttgart, 2015
                                    Version 2022.3 linked Wed Nov 30 12:40:34 2022


 **********************************************************************************************************************************
 LABEL *                                                                                 
  (8 PROC) 64 bit serial version                                                         DATE: 05-Aug-25          TIME: 16:54:38  
 **********************************************************************************************************************************

 SHA1:             e31ec9a5ea85254ab76f59d122cbdd51c71cf98b
 **********************************************************************************************************************************

 Memory per process:       400 MW
 Total memory per node:    400 MW

 GA preallocation disabled
 GA check disabled

 Variable memory set to 400.0 MW

 ZCENTRE=MASS


 Geometry recognized as XYZ



 Using masses of most abundant isotopes

 **********************************************************************************************************************************
 SETTING BASIS          =    6-311G(D,P)


 Recomputing integrals since basis changed


 Using spherical harmonics

 Library entry C      S 6-311G               selected for orbital group  1
 Library entry C      P 6-311G               selected for orbital group  1
 Library entry C      D 6-311G*              selected for orbital group  1
 Library entry H      S 6-311G               selected for orbital group  2
 Library entry H      P 6-311G**             selected for orbital group  2


 PROGRAM * SEWARD (Integral evaluation for generally contracted gaussian basis sets)     Author: Roland Lindh, 1990

 Geometry written to block  1 of record 700

 Orientation using atomic masses  
 Molecule type: Asymmetric top
 Rotational constants:       5.6862639      2.8432073      5.6865649 GHz

 Point group  C1  



 ATOMIC COORDINATES

 NR  ATOM    CHARGE       X              Y              Z

   1  C       6.00   -2.628805708    0.000030152   -0.196692418
   2  C       6.00   -1.484359165   -0.000622418    2.178432279
   3  C       6.00    1.143908523    0.000438622    2.375208217
   4  C       6.00    2.628994836   -0.000112663    0.196182093
   5  C       6.00    1.484690703   -0.000365518   -2.178308756
   6  C       6.00   -1.144404085    0.000455115   -2.374817794
   7  H       1.00   -4.700999400    0.000043775   -0.351420342
   8  H       1.00   -2.655161051    0.000511424    3.895261468
   9  H       1.00    2.046109166    0.001122438    4.247241808
  10  H       1.00    4.701253736    0.000612190    0.351803868
  11  H       1.00    2.654593669   -0.000815259   -3.895992579
  12  H       1.00   -2.046095031    0.000629502   -4.246937323

 Bond lengths in Bohr (Angstrom)

 1-2  2.636470300  1-6  2.635844934  1-7  2.077962326  2-3  2.635623822  2-8  2.078047355
     ( 1.395160000)     ( 1.394829070)     ( 1.099610308)     ( 1.394712063)     ( 1.099655303)

  3- 4  2.636974879   3- 9  2.078094376   4- 5  2.635837401   4-10  2.078094225   5- 6  2.636428622
       ( 1.395427011)       ( 1.099680186)       ( 1.394825084)       ( 1.099680106)       ( 1.395137945)

  5-11  2.078247066   6-12  2.077950462
       ( 1.099760986)       ( 1.099604030)

 Bond angles

  1- 2- 3  120.00863221   1- 2- 8  119.98077039   1- 6- 5  120.00002272   1- 6-12  120.00799702

  2-1-6  119.99845680   2-1-7  119.99722313   2-3-4  119.99416459   2-3-9  120.01279489

  3- 2- 8  120.01055010   3- 4- 5  119.99399231   3- 4-10  119.98114211   4- 3- 9  119.99303787

  4- 5- 6  120.00470467   4- 5-11  120.01134336   5- 4-10  120.02485852   5- 6-12  119.99197526

  6- 1- 7  120.00431986   6- 5-11  119.98395077

 NUCLEAR CHARGE:                   42
 NUMBER OF PRIMITIVE AOS:         240
 NUMBER OF SYMMETRY AOS:          234
 NUMBER OF CONTRACTIONS:          144   (  144A   )
 NUMBER OF INNER CORE ORBITALS:     0   (    0A   )
 NUMBER OF OUTER CORE ORBITALS:     6   (    6A   )
 NUMBER OF VALENCE ORBITALS:       30   (   30A   )


 NUCLEAR REPULSION ENERGY  203.03074910


 Eigenvalues of metric

         1 0.214E-03 0.163E-02 0.248E-02 0.248E-02 0.309E-02 0.309E-02 0.832E-02 0.832E-02


 Contracted 2-electron integrals neglected if value below      1.0D-11
 AO integral compression algorithm  1   Integral accuracy      1.0D-11

     167.772 MB (compressed) written to integral file ( 34.9%)


 NUMBER OF SORTED TWO-ELECTRON INTEGRALS:   54502020.     BUFFER LENGTH:  32768
 NUMBER OF SEGMENTS:   4  SEGMENT LENGTH:   15999503      RECORD LENGTH: 524288

 Memory used in sort:      16.56 MW

 SORT1 READ    60094233. AND WROTE    43646914. INTEGRALS IN    126 RECORDS. CPU TIME:     0.68 SEC, REAL TIME:     1.01 SEC
 SORT2 READ    43646914. AND WROTE    54502020. INTEGRALS IN    640 RECORDS. CPU TIME:     0.76 SEC, REAL TIME:     0.94 SEC

 FILE SIZES:   FILE 1:   198.7 MBYTE,  FILE 4:   528.5 MBYTE,   TOTAL:    727.2 MBYTE

 OPERATOR DM      FOR CENTER  0  COORDINATES:    0.000000    0.000000    0.000000


 **********************************************************************************************************************************
 DATASETS  * FILE   NREC   LENGTH (MB)   RECORD NAMES
              1      19      166.72       500      610      700      900      950      970     1000      129      960     1100   
                                          VAR    BASINP    GEOM    SYMINP    ZMAT    AOBASIS   BASIS     P2S    ABASIS      S 
                                         1400     1410     1200     1210     1080     1600     1650     1300     1700   
                                           T        V       H0       H01     AOSYM     SMH    MOLCAS    ERIS     OPER   

 PROGRAMS   *        TOTAL       INT
 CPU TIMES  *         5.08      4.96
 REAL TIME  *         5.88 SEC
 DISK USED  *       694.01 MB
 **********************************************************************************************************************************


 Program * Restricted Hartree-Fock

 Orbital guess generated from atomic densities.

 Initial occupancy:  21

 NELEC=   42   SYM=1   MS2= 0   THRE=1.0D-08   THRD=1.0D-06   THRG=1.0D-06  HFMA2=F  DIIS_START=2   DIIS_MAX=10   DIIS_INCORE=F

 Level shifts:    0.00 (CLOSED)    0.00 (OPEN)    0.30 (GAP_MIN)

 ITER           ETOT              DE          GRAD        DDIFF     DIIS  NEXP   TIME(IT)  TIME(TOT)  DIAG
   1     -230.69616460    -230.69616460     0.00D+00     0.33D-01     0     0       4.14      7.88    start
   2     -230.74491574      -0.04875114     0.37D-02     0.28D-02     1     0       3.81     11.69    diag
   3     -230.75037180      -0.00545606     0.14D-02     0.12D-02     2     0       3.82     15.51    diag
   4     -230.75115426      -0.00078246     0.45D-03     0.48D-03     3     0       3.82     19.33    diag
   5     -230.75116109      -0.00000684     0.34D-04     0.80D-04     4     0       3.80     23.13    diag
   6     -230.75116117      -0.00000008     0.37D-05     0.87D-05     5     0       3.77     26.90    diag
   7     -230.75116117      -0.00000000     0.52D-06     0.57D-06     6     0       3.87     30.77    diag
   8     -230.75116117      -0.00000000     0.22D-06     0.21D-06     0     0       3.80     34.57    fixocc

 Final occupancy:  21

 !RHF STATE 1.1 Energy               -230.751161172969
  RHF One-electron energy            -712.557597133707
  RHF Two-electron energy             278.775686863533
  RHF Kinetic energy                  230.350888715289
  RHF Nuclear energy                  203.030749097206
  RHF Virial quotient                  -1.001737664048

 !RHF STATE 1.1 Dipole moment          -0.00010413     0.00032428    -0.00000093
 Dipole moment /Debye                  -0.00026466     0.00082424    -0.00000237

 Orbital energies:

           1.1          2.1          3.1          4.1          5.1          6.1          7.1          8.1          9.1         10.1
    -11.237454   -11.236888   -11.236880   -11.235663   -11.235651   -11.235054    -1.148136    -1.011733    -1.011686    -0.819393

          11.1         12.1         13.1         14.1         15.1         16.1         17.1         18.1         19.1         20.1
     -0.819338    -0.703128    -0.635803    -0.617574    -0.583256    -0.583238    -0.500307    -0.490857    -0.490763    -0.335174

          21.1         22.1         23.1
     -0.335121     0.133491     0.133550


 HOMO     21.1    -0.335121 =      -9.1191eV
 LUMO     22.1     0.133491 =       3.6325eV
 LUMO-HOMO         0.468612 =      12.7516eV

 Orbitals saved in record  2100.2


 **********************************************************************************************************************************
 DATASETS  * FILE   NREC   LENGTH (MB)   RECORD NAMES
              1      19      166.72       500      610      700      900      950      970     1000      129      960     1100   
                                          VAR    BASINP    GEOM    SYMINP    ZMAT    AOBASIS   BASIS     P2S    ABASIS      S 
                                         1400     1410     1200     1210     1080     1600     1650     1300     1700   
                                           T        V       H0       H01     AOSYM     SMH    MOLCAS    ERIS     OPER   

              2       4        0.86       700     1000      520     2100   
                                         GEOM     BASIS   MCVARS     RHF  

 PROGRAMS   *        TOTAL    HF-SCF       INT
 CPU TIMES  *        39.70     34.61      4.96
 REAL TIME  *        13.28 SEC
 DISK USED  *       694.01 MB
 **********************************************************************************************************************************


 PROGRAM * OPT (Geometry optimization)     Authors: F. Eckert and H.-J. Werner


 BFGS update of hessian

 *** Long output written to logfile /home/zwa/Overlap_Integral_Project/overlap_integral_gaussian/molpro_files/benzene/benzene.log ***


 Geometry optimization using default procedure for command HF-SCF

 Geometry written to block  1 of record 700

 Entering BMAT geometry-optimization, modelhes=F
 Optimization method: RF

 ITER.   ENERGY(OLD)    ENERGY(NEW)      DE          GRADMAX     GRADNORM    GRADRMS     STEPMAX     STEPLEN     STEPRMS   CPU-time
   1  -230.75116117  -230.75406913    -0.00290796  0.01686300  0.04421740  0.00736957  0.06940046  0.17836490  0.05148951     78.12
   2  -230.75406913  -230.75409748    -0.00002835  0.00118060  0.00367399  0.00061233  0.00605789  0.01774617  0.00512288    151.50
   3  -230.75409748  -230.75409766    -0.00000019  0.00019152  0.00047823  0.00007971  0.00031955  0.00106865  0.00030849    234.08

 END OF GEOMETRY OPTIMIZATION.

 Geometry written to block  1 of record 700

 Recomputing wavefunction for reoriented structure

 Current geometry (xyz format, in Angstrom)

   12
 HF-SCF000/6-311G(D,P)  ENERGY=-230.75409766
 C         -0.9783097709        0.0000214932       -0.9808868474
 C         -1.3386153484       -0.0001230844        0.3568520623
 C         -0.3603196489        0.0001053089        1.3376825425
 C          0.9783504498       -0.0000334891        0.9808461377
 C          1.3386301555       -0.0000591540       -0.3567962784
 C          0.3602646993        0.0000627689       -1.3376974496
 H         -1.7379421692        0.0000482071       -1.7424313082
 H         -2.3779744926        0.0000448891        0.6338425668
 H         -0.6400014697        0.0001311344        2.3763205322
 H          1.7378989048        0.0000545593        1.7424738505
 H          2.3779587899       -0.0000213989       -0.6339010106
 H          0.6400540488        0.0000540496       -2.3763066201

 **********************************************************************************************************************************


 **********************************************************************************************************************************
 DATASETS  * FILE   NREC   LENGTH (MB)   RECORD NAMES
              1      19      163.08       500      610      700      900      950      970     1000      129      960     1100   
                                          VAR    BASINP    GEOM    SYMINP    ZMAT    AOBASIS   BASIS     P2S    ABASIS      S 
                                         1400     1410     1200     1210     1080     1600     1650     1300     1700   
                                           T        V       H0       H01     AOSYM     SMH    MOLCAS    ERIS     OPER   

              2       4        0.86       700     1000      520     2100   
                                         GEOM     BASIS   MCVARS     RHF  

 PROGRAMS   *        TOTAL      OPTG    HF-SCF       INT
 CPU TIMES  *       322.19    282.48     34.61      4.96
 REAL TIME  *       109.27 SEC
 DISK USED  *       694.01 MB
 **********************************************************************************************************************************


 PROGRAM * HESSIAN

 PROGRAM * MCKINLEY (Hessian of the energy)     Author: A. Bernhardsson, R. Lindh

 Orbitals from record         2100.2

 Number of closed-shell orbitals: 21 ( 21 )
 Number of occupied orbitals:     21 ( 21 )

 Number of electrons= 42     Singlet     Space symmetry=1      Wavefunction type: CLOSED          


 McKinley needed    955.84 seconds of CPU time

 Entering CPHF calculation

 CPHF needed 324 iterations for 36 perturbations.  Total CPU time:  810.10 sec


 HF-SCF hessian saved to record  5300.2

 PROGRAM * FREQUENCIES (Calculation of harmonic vibrational spectra for HF-SCF)


 Permanent Dipole Moment [debye]
 1-3    0.000000    0.000000    0.000000

 Dipole Moment Norm    0.0000000 [debye]

 Dipole Moment Derivatives [debye/ang]
              1             2             3             4             5             6             7             8
    1    0.00000000    0.00000000    0.00000000    0.00000000    0.00000000    0.00000000    0.00000000    0.00000000
    2    0.00000000    0.00000000    0.00000000    0.00000000    0.00000000    0.00000000    0.00000000    0.00000000
    3    0.00000000    0.00000000    0.00000000    0.00000000    0.00000000    0.00000000    0.00000000    0.00000000
              9            10            11            12            13            14            15            16
    1    0.00000000    0.00000000    0.00000000    0.00000000    0.00000000    0.00000000    0.00000000    0.00000000
    2    0.00000000    0.00000000    0.00000000    0.00000000    0.00000000    0.00000000    0.00000000    0.00000000
    3    0.00000000    0.00000000    0.00000000    0.00000000    0.00000000    0.00000000    0.00000000    0.00000000
             17            18            19            20            21            22            23            24
    1    0.00000000    0.00000000    0.00000000    0.00000000    0.00000000    0.00000000    0.00000000    0.00000000
    2    0.00000000    0.00000000    0.00000000    0.00000000    0.00000000    0.00000000    0.00000000    0.00000000
    3    0.00000000    0.00000000    0.00000000    0.00000000    0.00000000    0.00000000    0.00000000    0.00000000
             25            26            27            28            29            30            31            32
    1    0.00000000    0.00000000    0.00000000    0.00000000    0.00000000    0.00000000    0.00000000    0.00000000
    2    0.00000000    0.00000000    0.00000000    0.00000000    0.00000000    0.00000000    0.00000000    0.00000000
    3    0.00000000    0.00000000    0.00000000    0.00000000    0.00000000    0.00000000    0.00000000    0.00000000
             33            34            35            36
    1    0.00000000    0.00000000    0.00000000    0.00000000
    2    0.00000000    0.00000000    0.00000000    0.00000000
    3    0.00000000    0.00000000    0.00000000    0.00000000

 Projecting out rotations and translations

 Force Constants (Second Derivatives of the Energy) in [a.u.]
                             CX1         CY1         CZ1         CX2         CY2     
           CX1           0.7792433
           CY1           0.0000092   0.1648479
           CZ1           0.0526741  -0.0000405   0.7792836
           CX2          -0.1770325  -0.0000031   0.1031130   0.8250112
           CY2          -0.0000065  -0.0772340   0.0000271  -0.0000037   0.1648478
           CZ2          -0.0044542   0.0000370  -0.3468955  -0.0261121   0.0000192
           CX3           0.0958446   0.0000005  -0.0879954  -0.2618349  -0.0000328
           CY3           0.0000033   0.0088941   0.0000052  -0.0000320  -0.0772327
           CZ3          -0.0001553  -0.0000099  -0.0577627  -0.1521270  -0.0000357
           CX4          -0.0630353  -0.0000037   0.0598553  -0.0575326   0.0000064
           CY4           0.0000064  -0.0079860  -0.0000040  -0.0000123   0.0088947
           CZ4           0.0598519   0.0000062  -0.0627245  -0.0005526   0.0000079
           CX5          -0.0575305   0.0000036  -0.0005560  -0.0109674  -0.0000014
           CY5           0.0000022   0.0088947  -0.0000041  -0.0000037  -0.0079861
           CZ5          -0.0883961  -0.0000047   0.0956131  -0.0297908  -0.0000035
           CX6          -0.3473791  -0.0000090  -0.0048364   0.0188137   0.0000004
           CY6          -0.0000086  -0.0772330   0.0000032  -0.0000062   0.0088947
           CZ6           0.1027344   0.0000076  -0.1767946   0.0446314  -0.0000021
           HX7          -0.2205029   0.0000034  -0.1483553   0.0117117  -0.0000002
           HY7           0.0000024  -0.0459219   0.0000067   0.0000043   0.0047787
           HZ7          -0.1483549   0.0000097  -0.2212495  -0.0279345  -0.0000003
           HX8          -0.0036600   0.0000012  -0.0014697  -0.3495556   0.0000366
           HY8          -0.0000062   0.0047787   0.0000051   0.0000562  -0.0459220
           HZ8           0.0351709  -0.0000048  -0.0007464   0.0738300  -0.0000119
           HX9          -0.0032835  -0.0000007  -0.0041002   0.0131181  -0.0000002
           HY9          -0.0000025   0.0085152  -0.0000007   0.0000022   0.0047804
           HZ9          -0.0047534  -0.0000010  -0.0014896   0.0111553   0.0000005
           HX10         -0.0003615  -0.0000003   0.0012418  -0.0057740   0.0000008
           HY10          0.0000018  -0.0008453  -0.0000023   0.0000013   0.0085087
           HZ10          0.0012413  -0.0000004  -0.0003558   0.0026637  -0.0000011
           HX11         -0.0014685  -0.0000001  -0.0047487   0.0007183  -0.0000005
           HY11          0.0000012   0.0085091   0.0000014  -0.0000009  -0.0008453
           HZ11         -0.0040963   0.0000006  -0.0033075  -0.0006174   0.0000001
           HX12         -0.0008341  -0.0000008   0.0351774  -0.0066761   0.0000011
           HY12         -0.0000028   0.0047805   0.0000029  -0.0000021   0.0085152
           HZ12         -0.0014625   0.0000002  -0.0035706   0.0017411  -0.0000002
                             CZ2         CX3         CY3         CZ3         CX4     
           CZ2           0.7335184
           CX3          -0.0445570   0.7336526
           CY3          -0.0000456   0.0000010   0.1648479
           CZ3          -0.2623432  -0.0263466   0.0000619   0.8248751
           CX4          -0.0883926  -0.3471459   0.0000288   0.1026712   0.7789980
           CY4           0.0000028   0.0000289  -0.0772343  -0.0000100  -0.0000113
           CZ4           0.0956151  -0.0048971  -0.0000168  -0.1767774   0.0526734
           CX5          -0.0297942   0.0188097   0.0000014   0.0446313  -0.1770501
           CY5           0.0000047   0.0000051   0.0088945  -0.0000048  -0.0000024
           CZ5          -0.1147921   0.1324714   0.0000018   0.0192726  -0.0043923
           CX6           0.1324713  -0.1146372  -0.0000038  -0.0300594   0.0958426
           CY6           0.0000047   0.0000041  -0.0079860  -0.0000016  -0.0000029
           CZ6           0.0192687  -0.0300628   0.0000009  -0.0111227  -0.0001587
           HX7           0.0087056   0.0009823  -0.0000004   0.0026814  -0.0003622
           HY7           0.0000028  -0.0000003   0.0085091   0.0000004  -0.0000014
           HZ7          -0.0161171   0.0033339   0.0000014  -0.0057582   0.0012419
           HX8           0.0738316  -0.0174850   0.0000040   0.0110761  -0.0014666
           HY8          -0.0000181  -0.0000077   0.0047804   0.0000014  -0.0000016
           HZ8          -0.0921968  -0.0255635   0.0000042   0.0130809  -0.0040954
           HX9          -0.0254843  -0.0925809   0.0000016   0.0744957  -0.0008339
           HY9          -0.0000082  -0.0000011  -0.0459218  -0.0000022   0.0000027
           HZ9          -0.0175224   0.0744973  -0.0000142  -0.3491719  -0.0014625
           HX10          0.0033161  -0.0160685  -0.0000038  -0.0280076  -0.2204718
           HY10          0.0000009   0.0000006   0.0047788   0.0000031  -0.0000169
           HZ10          0.0009977   0.0086334   0.0000011   0.0116611  -0.1483567
           HX11         -0.0006180   0.0018956  -0.0000003   0.0017632  -0.0036577
           HY11          0.0000011  -0.0000001   0.0085153  -0.0000017   0.0000008
           HZ11         -0.0014357   0.0011100   0.0000006  -0.0066687   0.0351699
           HX12          0.0010878  -0.0014324   0.0000002  -0.0006230  -0.0032846
           HY12         -0.0000013   0.0000017  -0.0008453  -0.0000008   0.0000016
           HZ12          0.0019029  -0.0006236  -0.0000006   0.0007151  -0.0047535
                             CY4         CZ4         CX5         CY5         CZ5     
           CY4           0.1648477
           CZ4           0.0000372   0.7795312
           CX5           0.0000024   0.1031774   0.8248887
           CY5          -0.0772325  -0.0000044  -0.0000141   0.1648477
           CZ5          -0.0000097  -0.3471303  -0.0263260  -0.0000149   0.7336421
           CX6          -0.0000028  -0.0879989  -0.2617096   0.0000180  -0.0444335
           CY6           0.0088939   0.0000024   0.0000205  -0.0772340   0.0000206
           CZ6           0.0000022  -0.0577609  -0.1520010   0.0000217  -0.2622175
           HX7          -0.0000001   0.0012412  -0.0057719  -0.0000005   0.0033166
           HY7          -0.0008453   0.0000011  -0.0000003   0.0085151  -0.0000010
           HZ7          -0.0000001  -0.0003551   0.0026634   0.0000009   0.0009986
           HX8           0.0000008  -0.0047487   0.0007180   0.0000013  -0.0006180
           HY8           0.0085154  -0.0000029   0.0000013  -0.0008453  -0.0000020
           HZ8          -0.0000008  -0.0033064  -0.0006186  -0.0000004  -0.0014353
           HX9           0.0000006   0.0351781  -0.0066778   0.0000000   0.0010887
           HY9           0.0047788  -0.0000055   0.0000024   0.0085089   0.0000012
           HZ9           0.0000003  -0.0035726   0.0017412  -0.0000006   0.0019017
           HX10         -0.0000128  -0.1483541   0.0117129   0.0000006   0.0087064
           HY10         -0.0459218  -0.0000251  -0.0000012   0.0047803   0.0000033
           HZ10         -0.0000186  -0.2212812  -0.0279328  -0.0000022  -0.0161162
           HX11          0.0000000  -0.0014697  -0.3495401  -0.0000066   0.0738574
           HY11          0.0047804  -0.0000013  -0.0000131  -0.0459220   0.0000050
           HZ11          0.0000006  -0.0007465   0.0738588   0.0000041  -0.0922125
           HX12          0.0000002  -0.0041011   0.0131181  -0.0000000  -0.0254839
           HY12          0.0085089   0.0000013  -0.0000015   0.0047787   0.0000040
           HZ12         -0.0000001  -0.0014914   0.0111564   0.0000000  -0.0175241
                             CX6         CY6         CZ6         HX7         HY7     
           CX6           0.7337747
           CY6          -0.0000097   0.1648479
           CZ6          -0.0265576  -0.0000283   0.8247522
           HX7          -0.0160675   0.0000010  -0.0280059   0.2286895
           HY7           0.0000005   0.0047805  -0.0000011  -0.0000041   0.0311760
           HZ7           0.0086342  -0.0000006   0.0116623   0.1615100  -0.0000093
           HX8           0.0018943   0.0000012   0.0017634   0.0008741  -0.0000011
           HY8           0.0000020   0.0085090   0.0000034   0.0000001  -0.0048963
           HZ8           0.0011110  -0.0000010  -0.0066704  -0.0007579   0.0000002
           HX9          -0.0014321  -0.0000002  -0.0006242   0.0003747   0.0000003
           HY9          -0.0000013  -0.0008453   0.0000013   0.0000002   0.0000017
           HZ9          -0.0006236   0.0000006   0.0007148   0.0004692   0.0000002
           HX10          0.0009831   0.0000001   0.0026811   0.0000248  -0.0000000
           HY10         -0.0000022   0.0085154  -0.0000003   0.0000001  -0.0011995
           HZ10          0.0033344  -0.0000014  -0.0057562  -0.0000987   0.0000001
           HX11         -0.0174871  -0.0000008   0.0110773  -0.0010877  -0.0000001
           HY11          0.0000039   0.0047787  -0.0000010   0.0000002   0.0000016
           HZ11         -0.0255632  -0.0000010   0.0130809  -0.0013135  -0.0000001
           HX12         -0.0925958   0.0000014   0.0745226   0.0011353  -0.0000002
           HY12          0.0000040  -0.0459218  -0.0000043   0.0000003  -0.0048995
           HZ12          0.0745217   0.0000023  -0.3491567   0.0006071   0.0000001
                             HZ7         HX8         HY8         HZ8         HX9     
           HZ7           0.2295036
           HX8           0.0006064   0.3691854
           HY8          -0.0000006  -0.0000436   0.0311760
           HZ8           0.0011348  -0.0803791   0.0000132   0.0890076
           HX9          -0.0013098   0.0010040   0.0000003   0.0008332   0.0894260
           HY9          -0.0000004  -0.0000008  -0.0048995   0.0000008  -0.0000018
           HZ9          -0.0010898  -0.0005314   0.0000004   0.0010048  -0.0811036
           HX10         -0.0000987  -0.0010877  -0.0000005  -0.0013136   0.0011352
           HY10         -0.0000001   0.0000002   0.0000016   0.0000002   0.0000000
           HZ10          0.0000243   0.0004654   0.0000002   0.0003724  -0.0007570
           HX11          0.0004655  -0.0000611  -0.0000001   0.0000491  -0.0003597
           HY11         -0.0000001   0.0000001  -0.0011996   0.0000000  -0.0000000
           HZ11          0.0003725   0.0000491  -0.0000000   0.0001101   0.0017338
           HX12         -0.0007573  -0.0003599  -0.0000003   0.0017338   0.0001099
           HY12         -0.0000005  -0.0000000   0.0000016   0.0000002   0.0000000
           HZ12          0.0008736  -0.0000452   0.0000001  -0.0003554   0.0000496
                             HY9         HZ9         HX10        HY10        HZ10    
           HY9           0.0311759
           HZ9           0.0000134   0.3687676
           HX10         -0.0000001   0.0006071   0.2286588
           HY10         -0.0048963   0.0000002   0.0000160   0.0311759
           HZ10          0.0000007   0.0008738   0.1615103   0.0000204   0.2295350
           HX11          0.0000000  -0.0000452   0.0008739   0.0000003   0.0006065
           HY11          0.0000016  -0.0000001   0.0000002  -0.0048995   0.0000007
           HZ11         -0.0000003  -0.0003555  -0.0007581  -0.0000001   0.0011349
           HX12          0.0000000   0.0000496   0.0003747  -0.0000001  -0.0013096
           HY12         -0.0011995   0.0000002  -0.0000002   0.0000017   0.0000004
           HZ12         -0.0000002  -0.0000609   0.0004693  -0.0000001  -0.0010899
                             HX11        HY11        HZ11        HX12        HY12    
           HX11          0.3691701
           HY11          0.0000080   0.0311760
           HZ11         -0.0804061  -0.0000041   0.0890231
           HX12          0.0010041  -0.0000003   0.0008329   0.0894409
           HY12          0.0000001  -0.0048963  -0.0000005  -0.0000011   0.0311760
           HZ12         -0.0005314  -0.0000000   0.0010048  -0.0811291  -0.0000016
                             HZ12    
           HZ12          0.3687525


 Atomic Masses
 1-10   12.000000   12.000000   12.000000   12.000000   12.000000   12.000000    1.007825    1.007825    1.007825    1.007825
 11-12    1.007825    1.007825

 Mass weighted Second Derivative Matrix
                             CX1         CY1         CZ1         CX2         CY2     
           CX1           0.0649369
           CY1           0.0000008   0.0137373
           CZ1           0.0043895  -0.0000034   0.0649403
           CX2          -0.0147527  -0.0000003   0.0085928   0.0687509
           CY2          -0.0000005  -0.0064362   0.0000023  -0.0000003   0.0137373
           CZ2          -0.0003712   0.0000031  -0.0289080  -0.0021760   0.0000016
           CX3           0.0079871   0.0000000  -0.0073329  -0.0218196  -0.0000027
           CY3           0.0000003   0.0007412   0.0000004  -0.0000027  -0.0064361
           CZ3          -0.0000129  -0.0000008  -0.0048136  -0.0126773  -0.0000030
           CX4          -0.0052529  -0.0000003   0.0049879  -0.0047944   0.0000005
           CY4           0.0000005  -0.0006655  -0.0000003  -0.0000010   0.0007412
           CZ4           0.0049877   0.0000005  -0.0052270  -0.0000460   0.0000007
           CX5          -0.0047942   0.0000003  -0.0000463  -0.0009139  -0.0000001
           CY5           0.0000002   0.0007412  -0.0000003  -0.0000003  -0.0006655
           CZ5          -0.0073663  -0.0000004   0.0079678  -0.0024826  -0.0000003
           CX6          -0.0289483  -0.0000008  -0.0004030   0.0015678   0.0000000
           CY6          -0.0000007  -0.0064361   0.0000003  -0.0000005   0.0007412
           CZ6           0.0085612   0.0000006  -0.0147329   0.0037193  -0.0000002
           HX7          -0.0634061   0.0000010  -0.0426599   0.0033677  -0.0000001
           HY7           0.0000007  -0.0132049   0.0000019   0.0000012   0.0013741
           HZ7          -0.0426598   0.0000028  -0.0636208  -0.0080326  -0.0000001
           HX8          -0.0010524   0.0000003  -0.0004226  -0.1005155   0.0000105
           HY8          -0.0000018   0.0013741   0.0000015   0.0000162  -0.0132050
           HZ8           0.0101135  -0.0000014  -0.0002146   0.0212300  -0.0000034
           HX9          -0.0009442  -0.0000002  -0.0011790   0.0037722  -0.0000001
           HY9          -0.0000007   0.0024486  -0.0000002   0.0000006   0.0013746
           HZ9          -0.0013668  -0.0000003  -0.0004284   0.0032077   0.0000001
           HX10         -0.0001040  -0.0000001   0.0003571  -0.0016603   0.0000002
           HY10          0.0000005  -0.0002431  -0.0000007   0.0000004   0.0024467
           HZ10          0.0003569  -0.0000001  -0.0001023   0.0007660  -0.0000003
           HX11         -0.0004223  -0.0000000  -0.0013655   0.0002066  -0.0000001
           HY11          0.0000003   0.0024468   0.0000004  -0.0000002  -0.0002431
           HZ11         -0.0011779   0.0000002  -0.0009511  -0.0001775   0.0000000
           HX12         -0.0002399  -0.0000002   0.0101153  -0.0019197   0.0000003
           HY12         -0.0000008   0.0013746   0.0000008  -0.0000006   0.0024486
           HZ12         -0.0004205   0.0000001  -0.0010267   0.0005006  -0.0000001
                             CZ2         CX3         CY3         CZ3         CX4     
           CZ2           0.0611265
           CX3          -0.0037131   0.0611377
           CY3          -0.0000038   0.0000001   0.0137373
           CZ3          -0.0218619  -0.0021956   0.0000052   0.0687396
           CX4          -0.0073661  -0.0289288   0.0000024   0.0085559   0.0649165
           CY4           0.0000002   0.0000024  -0.0064362  -0.0000008  -0.0000009
           CZ4           0.0079679  -0.0004081  -0.0000014  -0.0147314   0.0043894
           CX5          -0.0024829   0.0015675   0.0000001   0.0037193  -0.0147542
           CY5           0.0000004   0.0000004   0.0007412  -0.0000004  -0.0000002
           CZ5          -0.0095660   0.0110393   0.0000001   0.0016060  -0.0003660
           CX6           0.0110393  -0.0095531  -0.0000003  -0.0025049   0.0079869
           CY6           0.0000004   0.0000003  -0.0006655  -0.0000001  -0.0000002
           CZ6           0.0016057  -0.0025052   0.0000001  -0.0009269  -0.0000132
           HX7           0.0025033   0.0002825  -0.0000001   0.0007710  -0.0001042
           HY7           0.0000008  -0.0000001   0.0024468   0.0000001  -0.0000004
           HZ7          -0.0046345   0.0009587   0.0000004  -0.0016558   0.0003571
           HX8           0.0212304  -0.0050278   0.0000012   0.0031850  -0.0004217
           HY8          -0.0000052  -0.0000022   0.0013746   0.0000004  -0.0000005
           HZ8          -0.0265114  -0.0073508   0.0000012   0.0037615  -0.0011776
           HX9          -0.0073281  -0.0266218   0.0000005   0.0214214  -0.0002398
           HY9          -0.0000024  -0.0000003  -0.0132049  -0.0000006   0.0000008
           HZ9          -0.0050386   0.0214219  -0.0000041  -0.1004052  -0.0004206
           HX10          0.0009536  -0.0046205  -0.0000011  -0.0080537  -0.0633972
           HY10          0.0000003   0.0000002   0.0013742   0.0000009  -0.0000049
           HZ10          0.0002869   0.0024825   0.0000003   0.0033532  -0.0426603
           HX11         -0.0001777   0.0005451  -0.0000001   0.0005070  -0.0010518
           HY11          0.0000003  -0.0000000   0.0024486  -0.0000005   0.0000002
           HZ11         -0.0004128   0.0003192   0.0000002  -0.0019176   0.0101132
           HX12          0.0003128  -0.0004119   0.0000001  -0.0001791  -0.0009445
           HY12         -0.0000004   0.0000005  -0.0002431  -0.0000002   0.0000005
           HZ12          0.0005472  -0.0001793  -0.0000002   0.0002056  -0.0013669
                             CY4         CZ4         CX5         CY5         CZ5     
           CY4           0.0137373
           CZ4           0.0000031   0.0649609
           CX5           0.0000002   0.0085981   0.0687407
           CY5          -0.0064360  -0.0000004  -0.0000012   0.0137373
           CZ5          -0.0000008  -0.0289275  -0.0021938  -0.0000012   0.0611368
           CX6          -0.0000002  -0.0073332  -0.0218091   0.0000015  -0.0037028
           CY6           0.0007412   0.0000002   0.0000017  -0.0064362   0.0000017
           CZ6           0.0000002  -0.0048134  -0.0126667   0.0000018  -0.0218515
           HX7          -0.0000000   0.0003569  -0.0016597  -0.0000001   0.0009537
           HY7          -0.0002431   0.0000003  -0.0000001   0.0024485  -0.0000003
           HZ7          -0.0000000  -0.0001021   0.0007659   0.0000002   0.0002871
           HX8           0.0000002  -0.0013655   0.0002065   0.0000004  -0.0001777
           HY8           0.0024486  -0.0000008   0.0000004  -0.0002431  -0.0000006
           HZ8          -0.0000002  -0.0009508  -0.0001779  -0.0000001  -0.0004127
           HX9           0.0000002   0.0101155  -0.0019202   0.0000000   0.0003131
           HY9           0.0013741  -0.0000016   0.0000007   0.0024467   0.0000003
           HZ9           0.0000001  -0.0010273   0.0005007  -0.0000002   0.0005468
           HX10         -0.0000037  -0.0426596   0.0033681   0.0000002   0.0025035
           HY10         -0.0132049  -0.0000072  -0.0000003   0.0013746   0.0000009
           HZ10         -0.0000053  -0.0636299  -0.0080321  -0.0000006  -0.0046342
           HX11          0.0000000  -0.0004226  -0.1005110  -0.0000019   0.0212379
           HY11          0.0013746  -0.0000004  -0.0000038  -0.0132050   0.0000014
           HZ11          0.0000002  -0.0002147   0.0212383   0.0000012  -0.0265159
           HX12          0.0000000  -0.0011793   0.0037721  -0.0000000  -0.0073279
           HY12          0.0024468   0.0000004  -0.0000004   0.0013741   0.0000011
           HZ12         -0.0000000  -0.0004289   0.0032081   0.0000000  -0.0050391
                             CX6         CY6         CZ6         HX7         HY7     
           CX6           0.0611479
           CY6          -0.0000008   0.0137373
           CZ6          -0.0022131  -0.0000024   0.0687294
           HX7          -0.0046203   0.0000003  -0.0080532   0.2269139
           HY7           0.0000001   0.0013746  -0.0000003  -0.0000041   0.0309339
           HZ7           0.0024828  -0.0000002   0.0033535   0.1602560  -0.0000092
           HX8           0.0005447   0.0000003   0.0005071   0.0008673  -0.0000011
           HY8           0.0000006   0.0024468   0.0000010   0.0000001  -0.0048583
           HZ8           0.0003195  -0.0000003  -0.0019181  -0.0007520   0.0000002
           HX9          -0.0004118  -0.0000000  -0.0001795   0.0003718   0.0000003
           HY9          -0.0000004  -0.0002431   0.0000004   0.0000002   0.0000016
           HZ9          -0.0001793   0.0000002   0.0002055   0.0004656   0.0000002
           HX10          0.0002827   0.0000000   0.0007710   0.0000246  -0.0000000
           HY10         -0.0000006   0.0024486  -0.0000001   0.0000001  -0.0011902
           HZ10          0.0009588  -0.0000004  -0.0016552  -0.0000979   0.0000001
           HX11         -0.0050285  -0.0000002   0.0031853  -0.0010793  -0.0000001
           HY11          0.0000011   0.0013741  -0.0000003   0.0000002   0.0000015
           HZ11         -0.0073508  -0.0000003   0.0037614  -0.0013033  -0.0000001
           HX12         -0.0266261   0.0000004   0.0214291   0.0011265  -0.0000002
           HY12          0.0000011  -0.0132049  -0.0000012   0.0000003  -0.0048615
           HZ12          0.0214289   0.0000007  -0.1004008   0.0006024   0.0000001
                             HZ7         HX8         HY8         HZ8         HX9     
           HZ7           0.2277217
           HX8           0.0006017   0.3663190
           HY8          -0.0000006  -0.0000432   0.0309339
           HZ8           0.0011260  -0.0797550   0.0000131   0.0883165
           HX9          -0.0012996   0.0009962   0.0000003   0.0008267   0.0887317
           HY9          -0.0000004  -0.0000008  -0.0048615   0.0000008  -0.0000018
           HZ9          -0.0010813  -0.0005273   0.0000004   0.0009970  -0.0804739
           HX10         -0.0000979  -0.0010792  -0.0000005  -0.0013034   0.0011264
           HY10         -0.0000001   0.0000002   0.0000015   0.0000002   0.0000000
           HZ10          0.0000241   0.0004618   0.0000002   0.0003695  -0.0007512
           HX11          0.0004619  -0.0000606  -0.0000001   0.0000488  -0.0003569
           HY11         -0.0000001   0.0000001  -0.0011903   0.0000000  -0.0000000
           HZ11          0.0003696   0.0000487  -0.0000000   0.0001093   0.0017203
           HX12         -0.0007514  -0.0003571  -0.0000003   0.0017203   0.0001090
           HY12         -0.0000005  -0.0000000   0.0000016   0.0000002   0.0000000
           HZ12          0.0008668  -0.0000449   0.0000001  -0.0003526   0.0000492
                             HY9         HZ9         HX10        HY10        HZ10    
           HY9           0.0309339
           HZ9           0.0000133   0.3659044
           HX10         -0.0000001   0.0006023   0.2268834
           HY10         -0.0048583   0.0000002   0.0000159   0.0309339
           HZ10          0.0000007   0.0008670   0.1602563   0.0000202   0.2277529
           HX11          0.0000000  -0.0000449   0.0008671   0.0000003   0.0006018
           HY11          0.0000016  -0.0000001   0.0000002  -0.0048614   0.0000007
           HZ11         -0.0000003  -0.0003527  -0.0007522  -0.0000001   0.0011261
           HX12          0.0000000   0.0000492   0.0003718  -0.0000001  -0.0012995
           HY12         -0.0011902   0.0000002  -0.0000002   0.0000017   0.0000004
           HZ12         -0.0000002  -0.0000604   0.0004657  -0.0000001  -0.0010814
                             HX11        HY11        HZ11        HX12        HY12    
           HX11          0.3663038
           HY11          0.0000080   0.0309339
           HZ11         -0.0797818  -0.0000041   0.0883319
           HX12          0.0009963  -0.0000003   0.0008264   0.0887465
           HY12          0.0000001  -0.0048583  -0.0000005  -0.0000011   0.0309339
           HZ12         -0.0005272  -0.0000000   0.0009970  -0.0804992  -0.0000016
                             HZ12    
           HZ12          0.3658894


 Mass Weighted 2nd Derivative Matrix Eigenvalues
 1-10    0.000000    0.000000    0.000000    0.000000    0.000000    0.000000    0.007686    0.007686    0.016657    0.016657
 11-20    0.021709    0.022661    0.034488    0.034488    0.043558    0.045075    0.045683    0.045683    0.047944    0.048304
 21-30    0.048304    0.052356    0.062011    0.062012    0.067599    0.084198    0.100772    0.100773    0.119757    0.119757
 31-36    0.414659    0.417522    0.417522    0.422202    0.422202    0.425182

 Mass Weighted 2nd Derivative Matrix Eigenvectors
              1             2             3             4             5             6             7             8
    1    0.00001137   -0.00000279    0.00000243    0.00000057    0.46882976    0.00000981   -0.00000809    0.00001919
    2    0.34786201    0.33321557    0.11072865   -0.36085662    0.00000390   -0.20671824   -0.28718832   -0.39197924
    3   -0.20383214    0.27890364   -0.26040143   -0.06933752   -0.14050155    0.08810611   -0.00005062   -0.00000803
    4    0.01661224    0.10617039   -0.03756973   -0.04955273    0.27669467    0.26555660   -0.00004692    0.00003207
    5    0.53273202    0.26369161   -0.19111045    0.00204810    0.00000152   -0.16549254    0.48305037   -0.05278777
    6   -0.19934089    0.30749272   -0.27055371   -0.08264495   -0.19225107    0.15963273    0.00000742    0.00003815
    7    0.02887090    0.18401169   -0.06518459   -0.08593793    0.13582118    0.46023275    0.00002501    0.00001227
    8    0.34543832    0.23090680   -0.16370074    0.46395478   -0.00000340   -0.05053192   -0.19587141    0.44470164
    9   -0.21152425    0.22986022   -0.24301660   -0.04646134   -0.05174164   -0.03456709    0.00005035   -0.00004866
   10    0.02439660    0.15569302   -0.05512687   -0.07269183    0.18707243    0.38941133    0.00001367   -0.00003419
   11   -0.02673835    0.26764350    0.16554949    0.56299018   -0.00000595    0.02321125   -0.28724238   -0.39193985
   12   -0.22816481    0.12360859   -0.20541315    0.00319281    0.14052720   -0.30028203    0.00001581   -0.00000089
   13    0.00775269    0.04953000   -0.01752334   -0.02311527    0.37919366    0.12389531    0.00002512   -0.00002422
   14   -0.21159505    0.33716245    0.46736684    0.20011165   -0.00000358   -0.01801146    0.48305786   -0.05272102
   15   -0.23264412    0.09501338   -0.19529084    0.01655269    0.19227300   -0.37179514    0.00001040   -0.00000430
   16   -0.00441582   -0.02832204    0.01002338    0.01321733    0.52007731   -0.07081877   -0.00001618   -0.00000674
   17   -0.02428805    0.36994963    0.43995529   -0.26182820    0.00000135   -0.13298032   -0.19581143    0.44472795
   18   -0.22048379    0.17266824   -0.22276975   -0.01974341    0.05175355   -0.17759870   -0.00003420    0.00002607
   19   -0.00273967   -0.01751680    0.00620251    0.00817791    0.16756603   -0.04380542    0.00000044    0.00000365
   20    0.14295855    0.10394336    0.02591869   -0.20851363    0.00000224   -0.08577592   -0.18431912   -0.25146418
   21   -0.05633348    0.09829921   -0.08165140   -0.02825503   -0.07233615    0.06923072   -0.00002102   -0.00000500
   22    0.00582532    0.03713863   -0.01315384   -0.01734304    0.06865749    0.09288945    0.00000794    0.00000267
   23    0.23812776    0.06815333   -0.12946447   -0.02169560    0.00000102   -0.06455366    0.30994759   -0.03380047
   24   -0.05402643    0.11302021   -0.08686511   -0.03512866   -0.09897645    0.10604853   -0.00000720   -0.00000428
   25    0.01211255    0.07721608   -0.02735263   -0.03606113   -0.00387032    0.19312353    0.00001078    0.00000448
   26    0.14170094    0.05127428   -0.11535286    0.21611400   -0.00000152   -0.00536696   -0.12560916    0.28535927
   27   -0.06029263    0.07304721   -0.07270372   -0.01647073   -0.02663615    0.00607066    0.00001780   -0.00001883
   28    0.00982210    0.06263763   -0.02218503   -0.02925014    0.02251252    0.15666311    0.00000402   -0.00000145
   29   -0.04988818    0.07018551    0.05413835    0.26709615   -0.00000283    0.03259468   -0.18424069   -0.25152271
   30   -0.06886222    0.01835332   -0.05333775    0.00907480    0.07234008   -0.13071661    0.00001558    0.00000605
   31    0.00125077    0.00798021   -0.00282327   -0.00372449    0.12142526    0.01996400    0.00000374   -0.00000485
   32   -0.14506146    0.10597706    0.20952814    0.08027019   -0.00000161    0.01137153    0.30993735   -0.03389782
   33   -0.07116781    0.00363058   -0.04812776    0.01595593    0.09898154   -0.16753488    0.00000703    0.00000521
   34   -0.00502402   -0.03209626    0.01136556    0.01498544    0.19395006   -0.08026911   -0.00000145    0.00000110
   35   -0.04863836    0.12285540    0.19541689   -0.15752970    0.00000092   -0.04781279   -0.12569762    0.28532001
   36   -0.06490505    0.04360426   -0.06228054   -0.00271597    0.02664408   -0.06756324   -0.00000927    0.00000872
              9            10            11            12            13            14            15            16
    1   -0.10279083    0.37540289    0.00004916   -0.00000791    0.00004411    0.00009964   -0.27427656   -0.27694148
    2    0.00001793   -0.00000398   -0.11363451    0.35563674    0.20957041   -0.16098265    0.00001924   -0.00001382
    3   -0.34462229    0.18238194   -0.00000393    0.00004923    0.00009166    0.00006157   -0.27583380   -0.27768526
    4    0.47427265    0.13012978    0.00002067    0.00005837   -0.00009043   -0.00009217   -0.37570721    0.37893217
    5    0.00001867    0.00001594   -0.11363877   -0.35563653   -0.03485109   -0.26195459   -0.00003267    0.00020667
    6   -0.16091582    0.18909874    0.00001662    0.00000825   -0.00000179    0.00005395    0.10076985   -0.10101693
    7    0.14929653   -0.19908004    0.00001270   -0.00000274    0.00005274   -0.00000549   -0.10174265   -0.10200091
    8    0.00001316    0.00001724   -0.11363410    0.35563640   -0.24420150   -0.10100309    0.00002750   -0.00036809
    9    0.22985975    0.43446913    0.00002354   -0.00006583   -0.00005371   -0.00011021    0.37544499    0.37868657
   10    0.10276938   -0.37540328   -0.00000843   -0.00003650    0.00002737    0.00009496    0.27512334   -0.27695449
   11    0.00001560    0.00001934   -0.11363463   -0.35563638   -0.20943530    0.16116150   -0.00002318    0.00005345
   12    0.34461687   -0.18240344    0.00005008    0.00002641    0.00009147    0.00006658    0.27498419   -0.27767251
   13   -0.47426440   -0.13015247   -0.00008230    0.00000965   -0.00009830   -0.00008823    0.37601414    0.37893686
   14   -0.00000776    0.00000437   -0.11363927    0.35563599    0.03463116    0.26198426    0.00001067    0.00025285
   15    0.16093264   -0.18908937    0.00000208    0.00001877   -0.00001681    0.00005205   -0.09960874   -0.10099920
   16   -0.14928428    0.19909426    0.00000072   -0.00000907    0.00006432   -0.00000925    0.10058809   -0.10198262
   17    0.00001516    0.00000750   -0.11363259   -0.35563691    0.24428774    0.10079422   -0.00001266   -0.00018016
   18   -0.22987991   -0.43445603   -0.00007939   -0.00004901   -0.00007821   -0.00011950   -0.37575710    0.37869158
   19   -0.11525259    0.04008063   -0.00002722   -0.00001567    0.00003775   -0.00000045   -0.08733989   -0.08008653
   20   -0.00003875   -0.00003134    0.39211399    0.20047360   -0.40698948    0.31282116    0.00000262    0.00007027
   21   -0.01454100    0.12129005    0.00005558    0.00003038   -0.00001659    0.00005966   -0.08791043   -0.08031455
   22    0.14343448   -0.00172289    0.00005132    0.00000560   -0.00001416    0.00003840   -0.11967686    0.10959092
   23   -0.00005324   -0.00003536    0.39211104   -0.20047178    0.06754644    0.50885749   -0.00007383   -0.00027632
   24   -0.02380027   -0.09311127   -0.00004146    0.00001240    0.00000476   -0.00003496    0.03215294   -0.02920710
   25   -0.09612825   -0.00349710   -0.00002487   -0.00000974   -0.00000533   -0.00002139   -0.03246194   -0.02948595
   26   -0.00004332   -0.00004442    0.39211706    0.20047395    0.47440488    0.19605314    0.00008903    0.00070453
   27    0.02904179    0.14041378   -0.00001624   -0.00002392   -0.00004119   -0.00004514    0.11959336    0.10952188
   28    0.11525139   -0.04006963    0.00002118   -0.00001497    0.00001530    0.00001647    0.08768344   -0.08008067
   29   -0.00003210   -0.00004311    0.39211674   -0.20047227    0.40690866   -0.31292708    0.00000696   -0.00010244
   30    0.01455091   -0.12129412   -0.00005329    0.00002254   -0.00002913    0.00006674    0.08756617   -0.08032043
   31   -0.14343232    0.00173095   -0.00002500    0.00000327   -0.00002441   -0.00001998    0.11980189    0.10958880
   32   -0.00004849   -0.00003330    0.39211086    0.20047210   -0.06741838   -0.50887412   -0.00007838   -0.00042130
   33    0.02381313    0.09311147    0.00003800    0.00001664    0.00000070   -0.00002450   -0.03168079   -0.02921515
   34    0.09613059    0.00350864    0.00003038   -0.00000925   -0.00000854   -0.00001121    0.03199634   -0.02949044
   35   -0.00003514   -0.00002094    0.39211593   -0.20047319   -0.47445696   -0.19592937    0.00009185    0.00019469
   36   -0.02903431   -0.14041329   -0.00001366   -0.00001601   -0.00003111   -0.00003716   -0.11971913    0.10952073
             17            18            19            20            21            22            23            24
    1   -0.00017084    0.00025429   -0.00026576   -0.27302901   -0.03273344    0.22873167    0.09738721   -0.11312436
    2    0.22807461    0.21257838   -0.20047582    0.00026701   -0.00030794    0.00000183   -0.00001504    0.00001114
    3   -0.00023246    0.00022376    0.00035815   -0.05839445   -0.26915144   -0.22729587   -0.09088577    0.11778700
    4    0.00016124   -0.00023260    0.00048843    0.12240889   -0.28670955    0.08362597    0.05450984    0.00331183
    5   -0.29809938    0.09134804    0.20047479   -0.00025356    0.00024168    0.00003915   -0.00000392    0.00001317
    6    0.00000784    0.00009926    0.00009627    0.19557572    0.12666121    0.31142816    0.20069046    0.03400276
    7   -0.00007655    0.00006405   -0.00004354    0.14472734    0.18279640   -0.31121035   -0.07362474   -0.18961488
    8    0.07005864   -0.30381118   -0.20046979    0.00022307   -0.00027703   -0.00000349    0.00000569    0.00000673
    9    0.00025636   -0.00031805   -0.00065696   -0.27392462    0.14856892   -0.08444010   -0.01439194   -0.05322496
   10   -0.00011405    0.00019643   -0.00024251   -0.27323314   -0.03283086    0.22789255   -0.09734207    0.11301451
   11    0.22815897    0.21249266    0.20046845   -0.00025984    0.00027965   -0.00007139   -0.00001058   -0.00000297
   12   -0.00019226    0.00014919    0.00035982   -0.05828324   -0.26896052   -0.22813554    0.09098234   -0.11784821
   13    0.00022853   -0.00031872    0.00050204    0.12251147   -0.28676918    0.08247921   -0.05436146   -0.00327626
   14   -0.29813790    0.09122765   -0.20047192    0.00026197   -0.00020953    0.00000160   -0.00001074    0.00000486
   15   -0.00002464    0.00010482    0.00010240    0.19561514    0.12637154    0.31173332   -0.20073575   -0.03396255
   16   -0.00007748    0.00003621   -0.00003097    0.14444243    0.18286031   -0.31151997    0.07359121    0.18967314
   17    0.06994401   -0.30383499    0.20047413   -0.00023462    0.00026952    0.00003232    0.00000665    0.00000024
   18    0.00018278   -0.00026467   -0.00068116   -0.27396951    0.14868298   -0.08329268    0.01432471    0.05308636
   19   -0.00000324    0.00010101   -0.00059453   -0.24984293    0.16939294    0.17740118    0.24127566   -0.29431765
   20   -0.35545989   -0.33131567    0.35564117   -0.00050156    0.00060182    0.00004711    0.00004966   -0.00005562
   21   -0.00013221    0.00002480    0.00063523    0.14504871   -0.26401582   -0.17667436   -0.23895989    0.29491876
   22    0.00011174   -0.00007595    0.00020114    0.12494922   -0.07131293    0.06466738    0.13689574    0.02072022
   23    0.46460079   -0.14237454   -0.35563723    0.00050754   -0.00056384   -0.00005001    0.00002211    0.00001994
   24   -0.00001401    0.00007282    0.00039906    0.38576859    0.11112256    0.24187725    0.51259573    0.08361913
   25    0.00001268   -0.00000811   -0.00035123    0.14608541    0.37364658   -0.24170531   -0.18483938   -0.48498471
   26   -0.10919477    0.47350015    0.35563249   -0.00051591    0.00055990   -0.00001817   -0.00002260   -0.00002925
   27    0.00009038   -0.00012314   -0.00031249   -0.05920607    0.13190777   -0.06529481   -0.04829632   -0.13119374
   28   -0.00001046    0.00004813   -0.00056433   -0.25002279    0.16928502    0.17713660   -0.24148279    0.29414769
   29   -0.35559856   -0.33117477   -0.35563017    0.00052102   -0.00051410    0.00008854    0.00002950   -0.00004079
   30   -0.00003457    0.00008924    0.00063819    0.14517157   -0.26384863   -0.17693772    0.23917332   -0.29475680
   31    0.00006642   -0.00009130    0.00024774    0.12501931   -0.07137455    0.06430657   -0.13690560   -0.02062230
   32    0.46466439   -0.14217603    0.35563376   -0.00051538    0.00045812   -0.00002905    0.00003793    0.00001060
   33    0.00004350    0.00002419    0.00039880    0.38581391    0.11084649    0.24197252   -0.51266035   -0.08325503
   34   -0.00000759    0.00002741   -0.00034558    0.14581291    0.37371723   -0.24180325    0.18450435    0.48511208
   35   -0.10900827    0.47353891   -0.35563946    0.00049041   -0.00052932   -0.00003849   -0.00002017   -0.00001932
   36    0.00005514   -0.00006828   -0.00030441   -0.05926090    0.13198421   -0.06493354    0.04820254    0.13121839
             25            26            27            28            29            30            31            32
    1   -0.17737775    0.13230430    0.28221909   -0.09687988   -0.37511884   -0.07344014    0.08010719    0.06922584
    2   -0.00004320    0.00000775    0.00000042   -0.00002392   -0.00001954   -0.00003182   -0.00000292   -0.00000155
    3    0.17669636   -0.13195814   -0.03784524    0.29606006    0.18924048    0.33087676    0.08030985    0.05793713
    4   -0.06464313   -0.04813222   -0.12558711    0.19769512    0.22837727   -0.10478239   -0.10960096   -0.15938022
    5   -0.00002033   -0.00000741   -0.00001712    0.00003748    0.00002488   -0.00001426    0.00001406    0.00001875
    6   -0.24188258   -0.18055998   -0.33251499   -0.11267855   -0.01085713   -0.47764592    0.02920897    0.04194791
    7    0.24171199   -0.18043106   -0.17704815   -0.30300626   -0.45568195    0.14273008    0.02949064    0.02777925
    8    0.00002092   -0.00000399    0.00004274   -0.00002601    0.00000020    0.00004095   -0.00000476   -0.00000265
    9    0.06527013   -0.04859792    0.16828170   -0.16321323   -0.02692781    0.25031454   -0.10951031   -0.07008039
   10   -0.17715249   -0.13230262    0.28269692   -0.09678991    0.37465808    0.07360094    0.08007959   -0.06924141
   11    0.00003973    0.00001404   -0.00002004    0.00001080   -0.00002956   -0.00001437    0.00000837   -0.00000466
   12    0.17692598    0.13196112   -0.03802639    0.29560910   -0.18923911   -0.33136631    0.08029707   -0.05796865
   13   -0.06433273    0.04812985   -0.12592660    0.19779736   -0.22819503    0.10441239   -0.10958861    0.15938436
   14    0.00002230   -0.00000376    0.00001226   -0.00001578    0.00000832   -0.00001700   -0.00000214    0.00000398
   15   -0.24196668    0.18056127   -0.33252390   -0.11208999    0.01138952    0.47780310    0.02921834   -0.04197048
   16    0.24179489    0.18043148   -0.17647326   -0.30313246    0.45600047   -0.14227688    0.02950297   -0.02778311
   17   -0.00001942   -0.00000662   -0.00001890    0.00001804   -0.00000915    0.00001810    0.00000121    0.00000029
   18    0.06495844    0.04859391    0.16831495   -0.16356796    0.02663754   -0.25002189   -0.10952315    0.07006017
   19    0.22826688   -0.25698008   -0.12773777    0.24800133    0.07769690    0.12221814   -0.27699112   -0.21496304
   20    0.00004214   -0.00003249   -0.00002564    0.00002436    0.00001575    0.00000010    0.00000984    0.00000675
   21   -0.22777174    0.25633801    0.21702912   -0.17404949   -0.14077400   -0.03379669   -0.27768914   -0.21119249
   22    0.08298267    0.09346922    0.08523405    0.09420597    0.06903054    0.05582347    0.37897196    0.53380200
   23    0.00003150    0.00001492    0.00001595    0.00000566    0.00002296    0.00001142   -0.00005194   -0.00007200
   24    0.31159725    0.35073155    0.37085974    0.03925928   -0.03782322    0.18061194   -0.10099844   -0.14206511
   25   -0.31138803    0.35048776    0.11201696    0.35544935    0.15865230   -0.09403764   -0.10196724   -0.06839886
   26   -0.00002111    0.00001568    0.00001927    0.00001088    0.00001629    0.00002042    0.00001262    0.00000831
   27   -0.08379067    0.09437723    0.10957844    0.06569451    0.07547407    0.04715890    0.37866104    0.24155319
   28    0.22836487    0.25701105   -0.12793307    0.24778997   -0.07765507   -0.12251365   -0.27689608    0.21503418
   29   -0.00006023   -0.00002926    0.00002243   -0.00002371    0.00001103    0.00001459   -0.00002867    0.00002158
   30   -0.22765986   -0.25630901    0.21727316   -0.17389898    0.14050780    0.03393035   -0.27764947    0.21130515
   31    0.08312432   -0.09351038    0.08519809    0.09409518   -0.06910774   -0.05602125    0.37893076   -0.53382200
   32   -0.00002100    0.00001681   -0.00001720   -0.00000705    0.00000605    0.00000707    0.00001055   -0.00001385
   33    0.31155255   -0.35072227    0.37093552    0.03887774    0.03745931   -0.18059734   -0.10102877    0.14212582
   34   -0.31135340   -0.35047665    0.11165787    0.35560218   -0.15875498    0.09368902   -0.10201661    0.06840043
   35    0.00002870    0.00001433   -0.00001260   -0.00001224    0.00001368    0.00000993   -0.00000006    0.00000034
   36   -0.08393321   -0.09441644    0.10946052    0.06567976   -0.07568413   -0.04717008    0.37870211   -0.24147012
             33            34            35            36
    1   -0.09401554   -0.05240159   -0.10956673   -0.08750880
    2    0.00000477    0.00000311    0.00000395    0.00000409
    3   -0.10169928   -0.06890173   -0.10036215   -0.08772226
    4   -0.00594151   -0.16565904    0.00355676   -0.11973673
    5    0.00000176    0.00001608    0.00000022    0.00001093
    6    0.01156084    0.04414664    0.01287702    0.03190436
    7    0.03401138   -0.01109300    0.04504680   -0.03221945
    8   -0.00000661    0.00000513   -0.00000820    0.00000708
    9   -0.14315189    0.08572484   -0.14165896    0.11966800
   10    0.09399129   -0.05242161   -0.10952021    0.08751248
   11    0.00000986   -0.00000547   -0.00000852    0.00000701
   12    0.10169789   -0.06894984   -0.10036210    0.08775828
   13    0.00587340   -0.16564290    0.00353313    0.11973921
   14    0.00000087   -0.00000189   -0.00000038    0.00000213
   15   -0.01154322    0.04418284    0.01288396   -0.03193097
   16   -0.03402684   -0.01109471    0.04508962    0.03223551
   17   -0.00000100   -0.00000131    0.00000179    0.00000182
   18    0.14314878    0.08565786   -0.14169568   -0.11964738
   19    0.32619196    0.19130958    0.33897765    0.27467740
   20   -0.00001244   -0.00000853   -0.00001189   -0.00001033
   21    0.32981820    0.19871064    0.33583174    0.27537079
   22    0.02731169    0.53253509   -0.00181760    0.37584720
   23   -0.00000408   -0.00007188   -0.00000053   -0.00005006
   24   -0.01103310   -0.14192798   -0.00535679   -0.10016630
   25   -0.12658267    0.06687779   -0.12685151    0.10115286
   26    0.00001746   -0.00001037    0.00001660   -0.00001452
   27    0.47640800   -0.26716080    0.46022989   -0.37563400
   28   -0.32611285    0.19138867    0.33887845   -0.27471493
   29   -0.00003423    0.00002116    0.00003430   -0.00002825
   30   -0.32980178    0.19882912    0.33579956   -0.27546120
   31   -0.02706453    0.53250202   -0.00176020   -0.37586579
   32   -0.00000132    0.00001453    0.00000074   -0.00000971
   33    0.01096987   -0.14197633   -0.00537223    0.10021080
   34    0.12662843    0.06685367   -0.12693115   -0.10117348
   35    0.00000131    0.00000112   -0.00000082   -0.00000119
   36   -0.47640648   -0.26697021    0.46035215    0.37557634

   Low Vibration      Wavenumber
        Nr             [1/cm] 
        1                0.00
        2                0.00
        3                0.00
        4                0.00
        5                0.00
        6                0.00

     Vibration        Wavenumber
        Nr             [1/cm] 
        1              450.66
        2              450.66
        3              663.45
        4              663.45
        5              757.40
        6              773.82
        7              954.64
        8              954.64
        9             1072.85
       10             1091.37
       11             1098.70
       12             1098.70
       13             1125.56
       14             1129.78
       15             1129.78
       16             1176.22
       17             1280.09
       18             1280.09
       19             1336.52
       20             1491.61
       21             1631.83
       22             1631.83
       23             1778.91
       24             1778.91
       25             3310.17
       26             3321.57
       27             3321.57
       28             3340.14
       29             3340.14
       30             3351.90

 FREQUENCIES * CALCULATION OF NORMAL MODES FOR HF-SCF


 Atomic Coordinates

  Nr  Atom  Charge       X              Y              Z

   1   C     6.00   -1.848737532    0.000040616   -1.853607501
   2   C     6.00   -2.529616395   -0.000232596    0.674352665
   3   C     6.00   -0.680905454    0.000199005    2.527853647
   4   C     6.00    1.848814404   -0.000063285    1.853530571
   5   C     6.00    2.529644376   -0.000111785   -0.674247248
   6   C     6.00    0.680801614    0.000118616   -2.527881817
   7   H     1.00   -3.284234720    0.000091098   -3.292717964
   8   H     1.00   -4.493720522    0.000084828    1.197788857
   9   H     1.00   -1.209427497    0.000247808    4.490594990
  10   H     1.00    3.284152962    0.000103102    3.292798357
  11   H     1.00    4.493690849   -0.000040438   -1.197899300
  12   H     1.00    1.209526857    0.000102139   -4.490568700

 Gradient norm at reference geometry: 0.47823D-03

 Normal Modes

                              1 A         2 A         3 A         4 A         5 A  
 Wavenumbers [cm-1]          450.66      450.66      663.45      663.45      757.40
 Intensities [km/mol]          0.00        0.00        0.00        0.00        0.00
 Intensities [relative]        0.00        0.00        0.00        0.00        0.00
           CX1             -0.00000     0.00001    -0.02967     0.10837     0.00001
           CY1             -0.08290    -0.11315     0.00001    -0.00000    -0.03280
           CZ1             -0.00001    -0.00000    -0.09948     0.05265    -0.00000
           CX2             -0.00001     0.00001     0.13691     0.03757     0.00001
           CY2              0.13944    -0.01524     0.00001     0.00000    -0.03280
           CZ2              0.00000     0.00001    -0.04645     0.05459     0.00000
           CX3              0.00001     0.00000     0.04310    -0.05747     0.00000
           CY3             -0.05654     0.12837     0.00000     0.00000    -0.03280
           CZ3              0.00001    -0.00001     0.06635     0.12542     0.00001
           CX4              0.00000    -0.00001     0.02967    -0.10837    -0.00000
           CY4             -0.08292    -0.11314     0.00000     0.00001    -0.03280
           CZ4              0.00000    -0.00000     0.09948    -0.05266     0.00001
           CX5              0.00001    -0.00001    -0.13691    -0.03757    -0.00002
           CY5              0.13945    -0.01522    -0.00000     0.00000    -0.03280
           CZ5              0.00000    -0.00000     0.04646    -0.05459     0.00000
           CX6             -0.00000    -0.00000    -0.04309     0.05747     0.00000
           CY6             -0.05653     0.12838     0.00000     0.00000    -0.03280
           CZ6             -0.00001     0.00001    -0.06636    -0.12542    -0.00002
           HX7              0.00000     0.00000    -0.11480     0.03992    -0.00003
           HY7             -0.18360    -0.25049    -0.00004    -0.00003     0.39059
           HZ7             -0.00002    -0.00000    -0.01448     0.12082     0.00006
           HX8              0.00001     0.00000     0.14288    -0.00172     0.00005
           HY8              0.30874    -0.03367    -0.00005    -0.00004     0.39059
           HZ8             -0.00001    -0.00000    -0.02371    -0.09275    -0.00004
           HX9              0.00001     0.00000    -0.09575    -0.00348    -0.00002
           HY9             -0.12512     0.28425    -0.00004    -0.00004     0.39059
           HZ9              0.00002    -0.00002     0.02893     0.13987    -0.00002
           HX10             0.00000    -0.00000     0.11480    -0.03991     0.00002
           HY10            -0.18352    -0.25054    -0.00003    -0.00004     0.39059
           HZ10             0.00002     0.00001     0.01449    -0.12082    -0.00005
           HX11             0.00000    -0.00000    -0.14287     0.00172    -0.00002
           HY11             0.30873    -0.03377    -0.00005    -0.00003     0.39059
           HZ11             0.00001     0.00001     0.02372     0.09275     0.00004
           HX12            -0.00000     0.00000     0.09576     0.00349     0.00003
           HY12            -0.12521     0.28421    -0.00004    -0.00002     0.39059
           HZ12            -0.00001     0.00001    -0.02892    -0.13987    -0.00001

                              6 A         7 A         8 A         9 A        10 A  
 Wavenumbers [cm-1]          773.82      954.64      954.64     1072.85     1091.37
 Intensities [km/mol]          0.00        0.00        0.00        0.00        0.00
 Intensities [relative]        0.00        0.00        0.00        0.00        0.00
           CX1             -0.00000     0.00001     0.00003    -0.07918    -0.07995
           CY1              0.10266     0.06050    -0.04647     0.00001    -0.00000
           CZ1              0.00001     0.00003     0.00002    -0.07963    -0.08016
           CX2              0.00002    -0.00003    -0.00003    -0.10846     0.10939
           CY2             -0.10266    -0.01006    -0.07562    -0.00001     0.00006
           CZ2              0.00000    -0.00000     0.00002     0.02909    -0.02916
           CX3             -0.00000     0.00002    -0.00000    -0.02937    -0.02945
           CY3              0.10266    -0.07049    -0.02916     0.00001    -0.00011
           CZ3             -0.00002    -0.00002    -0.00003     0.10838     0.10932
           CX4             -0.00001     0.00001     0.00003     0.07942    -0.07995
           CY4             -0.10266    -0.06046     0.04652    -0.00001     0.00002
           CZ4              0.00001     0.00003     0.00002     0.07938    -0.08016
           CX5              0.00000    -0.00003    -0.00003     0.10855     0.10939
           CY5              0.10266     0.01000     0.07563     0.00000     0.00007
           CZ5              0.00001    -0.00000     0.00002    -0.02875    -0.02916
           CX6             -0.00000     0.00002    -0.00000     0.02904    -0.02944
           CY6             -0.10266     0.07052     0.02910    -0.00000    -0.00005
           CZ6             -0.00001    -0.00002    -0.00003    -0.10847     0.10932
           HX7             -0.00002     0.00004    -0.00000    -0.08700    -0.07978
           HY7              0.19969    -0.40541     0.31160     0.00000     0.00007
           HZ7              0.00003    -0.00002     0.00006    -0.08757    -0.08000
           HX8              0.00001    -0.00001     0.00004    -0.11921     0.10916
           HY8             -0.19969     0.06728     0.50688    -0.00007    -0.00028
           HZ8              0.00001     0.00000    -0.00003     0.03203    -0.02909
           HX9             -0.00001    -0.00001    -0.00002    -0.03234    -0.02937
           HY9              0.19969     0.47256     0.19529     0.00009     0.00070
           HZ9             -0.00002    -0.00004    -0.00004     0.11913     0.10910
           HX10            -0.00001     0.00002     0.00002     0.08734    -0.07977
           HY10            -0.19969     0.40533    -0.31171     0.00001    -0.00010
           HZ10             0.00002    -0.00003     0.00007     0.08723    -0.08001
           HX11             0.00000    -0.00002    -0.00002     0.11934     0.10916
           HY11             0.19969    -0.06716    -0.50689    -0.00008    -0.00042
           HZ11             0.00002     0.00000    -0.00002    -0.03156    -0.02910
           HX12            -0.00001    -0.00001    -0.00001     0.03187    -0.02938
           HY12            -0.19969    -0.47261    -0.19517     0.00009     0.00019
           HZ12            -0.00002    -0.00003    -0.00004    -0.11925     0.10909

                             11 A        12 A        13 A        14 A        15 A  
 Wavenumbers [cm-1]         1098.70     1098.70     1125.56     1129.78     1129.78
 Intensities [km/mol]          0.00        0.00        0.00        0.00        0.00
 Intensities [relative]        0.00        0.00        0.00        0.00        0.00
           CX1             -0.00005     0.00007    -0.00008    -0.07882    -0.00945
           CY1              0.06584     0.06137    -0.05787     0.00008    -0.00009
           CZ1             -0.00007     0.00006     0.00010    -0.01686    -0.07770
           CX2              0.00005    -0.00007     0.00014     0.03534    -0.08277
           CY2             -0.08605     0.02637     0.05787    -0.00007     0.00007
           CZ2              0.00000     0.00003     0.00003     0.05646     0.03656
           CX3             -0.00002     0.00002    -0.00001     0.04178     0.05277
           CY3              0.02022    -0.08770    -0.05787     0.00006    -0.00008
           CZ3              0.00007    -0.00009    -0.00019    -0.07908     0.04289
           CX4             -0.00003     0.00006    -0.00007    -0.07888    -0.00948
           CY4              0.06586     0.06134     0.05787    -0.00008     0.00008
           CZ4             -0.00006     0.00004     0.00010    -0.01682    -0.07764
           CX5              0.00007    -0.00009     0.00014     0.03537    -0.08278
           CY5             -0.08606     0.02634    -0.05787     0.00008    -0.00006
           CZ5             -0.00001     0.00003     0.00003     0.05647     0.03648
           CX6             -0.00002     0.00001    -0.00001     0.04170     0.05279
           CY6              0.02019    -0.08771     0.05787    -0.00007     0.00008
           CZ6              0.00005    -0.00008    -0.00020    -0.07909     0.04292
           HX7             -0.00000     0.00010    -0.00059    -0.24887     0.16873
           HY7             -0.35408    -0.33003     0.35426    -0.00050     0.00060
           HZ7             -0.00013     0.00002     0.00063     0.14448    -0.26299
           HX8              0.00011    -0.00008     0.00020     0.12446    -0.07104
           HY8              0.46279    -0.14182    -0.35425     0.00051    -0.00056
           HZ8             -0.00001     0.00007     0.00040     0.38427     0.11069
           HX9              0.00001    -0.00001    -0.00035     0.14552     0.37219
           HY9             -0.10877     0.47166     0.35425    -0.00051     0.00056
           HZ9              0.00009    -0.00012    -0.00031    -0.05898     0.13139
           HX10            -0.00001     0.00005    -0.00056    -0.24905     0.16863
           HY10            -0.35422    -0.32989    -0.35425     0.00052    -0.00051
           HZ10            -0.00003     0.00009     0.00064     0.14461    -0.26282
           HX11             0.00007    -0.00009     0.00025     0.12453    -0.07110
           HY11             0.46286    -0.14162     0.35425    -0.00051     0.00046
           HZ11             0.00004     0.00002     0.00040     0.38431     0.11042
           HX12            -0.00001     0.00003    -0.00034     0.14525     0.37226
           HY12            -0.10858     0.47170    -0.35426     0.00049    -0.00053
           HZ12             0.00005    -0.00007    -0.00030    -0.05903     0.13147

                             16 A        17 A        18 A        19 A        20 A  
 Wavenumbers [cm-1]         1176.22     1280.09     1280.09     1336.52     1491.61
 Intensities [km/mol]          0.00        0.00        0.00        0.00        0.00
 Intensities [relative]        0.00        0.00        0.00        0.00        0.00
           CX1              0.06603     0.02811    -0.03266    -0.05120     0.03819
           CY1              0.00000    -0.00000     0.00000    -0.00001     0.00000
           CZ1             -0.06561    -0.02624     0.03400     0.05101    -0.03809
           CX2              0.02414     0.01574     0.00096    -0.01866    -0.01389
           CY2              0.00001    -0.00000     0.00000    -0.00001    -0.00000
           CZ2              0.08990     0.05793     0.00982    -0.06983    -0.05212
           CX3             -0.08984    -0.02125    -0.05474     0.06978    -0.05209
           CY3             -0.00000     0.00000     0.00000     0.00001    -0.00000
           CZ3             -0.02438    -0.00415    -0.01536     0.01884    -0.01403
           CX4              0.06579    -0.02810     0.03262    -0.05114    -0.03819
           CY4             -0.00002    -0.00000    -0.00000     0.00001     0.00000
           CZ4             -0.06586     0.02626    -0.03402     0.05107     0.03809
           CX5              0.02381    -0.01569    -0.00095    -0.01857     0.01389
           CY5              0.00000    -0.00000     0.00000     0.00001    -0.00000
           CZ5              0.08999    -0.05795    -0.00980    -0.06985     0.05212
           CX6             -0.08993     0.02124     0.05475     0.06980     0.05209
           CY6              0.00001     0.00000     0.00000    -0.00001    -0.00000
           CZ6             -0.02404     0.00414     0.01532     0.01875     0.01403
           HX7              0.17671     0.24034    -0.29317     0.22738    -0.25598
           HY7              0.00005     0.00005    -0.00006     0.00004    -0.00003
           HZ7             -0.17599    -0.23803     0.29377    -0.22689     0.25534
           HX8              0.06442     0.13636     0.02064     0.08266     0.09311
           HY8             -0.00005     0.00002     0.00002     0.00003     0.00001
           HZ8              0.24094     0.51060     0.08329     0.31039     0.34937
           HX9             -0.24077    -0.18412    -0.48310    -0.31018     0.34912
           HY9             -0.00002    -0.00002    -0.00003    -0.00002     0.00002
           HZ9             -0.06504    -0.04811    -0.13068    -0.08346     0.09401
           HX10             0.17645    -0.24054     0.29300     0.22748     0.25601
           HY10             0.00009     0.00003    -0.00004    -0.00006    -0.00003
           HZ10            -0.17625     0.23824    -0.29361    -0.22677    -0.25531
           HX11             0.06406    -0.13637    -0.02054     0.08280    -0.09315
           HY11            -0.00003     0.00004     0.00001    -0.00002     0.00002
           HZ11             0.24103    -0.51067    -0.08293     0.31034    -0.34936
           HX12            -0.24086     0.18379     0.48323    -0.31014    -0.34911
           HY12            -0.00004    -0.00002    -0.00002     0.00003     0.00001
           HZ12            -0.06468     0.04802     0.13071    -0.08361    -0.09405

                             21 A        22 A        23 A        24 A        25 A  
 Wavenumbers [cm-1]         1631.83     1631.83     1778.91     1778.91     3310.17
 Intensities [km/mol]          0.00        0.00        0.00        0.00        0.00
 Intensities [relative]        0.00        0.00        0.00        0.00        0.00
           CX1              0.08147    -0.02797    -0.10829    -0.02120     0.02312
           CY1              0.00000    -0.00001    -0.00001    -0.00001    -0.00000
           CZ1             -0.01092     0.08547     0.05463     0.09552     0.02318
           CX2             -0.03625     0.05707     0.06593    -0.03025    -0.03164
           CY2             -0.00000     0.00001     0.00001    -0.00000     0.00000
           CZ2             -0.09599    -0.03253    -0.00313    -0.13788     0.00843
           CX3             -0.05111    -0.08747    -0.13154     0.04120     0.00851
           CY3              0.00001    -0.00001     0.00000     0.00001    -0.00000
           CZ3              0.04858    -0.04712    -0.00777     0.07226    -0.03161
           CX4              0.08161    -0.02794     0.10815     0.02125     0.02312
           CY4             -0.00001     0.00000    -0.00001    -0.00000     0.00000
           CZ4             -0.01098     0.08533    -0.05463    -0.09566     0.02318
           CX5             -0.03635     0.05710    -0.06587     0.03014    -0.03164
           CY5              0.00000    -0.00000     0.00000    -0.00000    -0.00000
           CZ5             -0.09599    -0.03236     0.00329     0.13793     0.00843
           CX6             -0.05094    -0.08751     0.13164    -0.04107     0.00852
           CY6             -0.00001     0.00001    -0.00000     0.00001     0.00000
           CZ6              0.04859    -0.04722     0.00769    -0.07218    -0.03162
           HX7             -0.12724     0.24704     0.07739     0.12174    -0.27591
           HY7             -0.00003     0.00002     0.00002     0.00000     0.00001
           HZ7              0.21618    -0.17337    -0.14023    -0.03367    -0.27661
           HX8              0.08490     0.09384     0.06876     0.05561     0.37750
           HY8              0.00002     0.00001     0.00002     0.00001    -0.00005
           HZ8              0.36942     0.03911    -0.03768     0.17991    -0.10061
           HX9              0.11158     0.35407     0.15804    -0.09367    -0.10157
           HY9              0.00002     0.00001     0.00002     0.00002     0.00001
           HZ9              0.10915     0.06544     0.07518     0.04698     0.37719
           HX10            -0.12744     0.24683    -0.07735    -0.12204    -0.27582
           HY10             0.00002    -0.00002     0.00001     0.00001    -0.00003
           HZ10             0.21643    -0.17322     0.13996     0.03380    -0.27657
           HX11             0.08487     0.09373    -0.06884    -0.05580     0.37746
           HY11            -0.00002    -0.00001     0.00001     0.00001     0.00001
           HZ11             0.36949     0.03873     0.03731    -0.17989    -0.10064
           HX12             0.11122     0.35422    -0.15814     0.09332    -0.10162
           HY12            -0.00001    -0.00001     0.00001     0.00001    -0.00000
           HZ12             0.10903     0.06542    -0.07539    -0.04699     0.37723

                             26 A        27 A        28 A        29 A        30 A  
 Wavenumbers [cm-1]         3321.57     3321.57     3340.14     3340.14     3351.90
 Intensities [km/mol]          0.00        0.00        0.00        0.00        0.00
 Intensities [relative]        0.00        0.00        0.00        0.00        0.00
           CX1              0.01998    -0.02714    -0.01513    -0.03163    -0.02526
           CY1             -0.00000     0.00000     0.00000     0.00000     0.00000
           CZ1              0.01673    -0.02936    -0.01989    -0.02897    -0.02532
           CX2             -0.04601    -0.00172    -0.04782     0.00103    -0.03457
           CY2              0.00001     0.00000     0.00000     0.00000     0.00000
           CZ2              0.01211     0.00334     0.01274     0.00372     0.00921
           CX3              0.00802     0.00982    -0.00320     0.01300    -0.00930
           CY3             -0.00000    -0.00000     0.00000    -0.00000     0.00000
           CZ3             -0.02023    -0.04132     0.02475    -0.04089     0.03455
           CX4             -0.01999     0.02713    -0.01513    -0.03162     0.02526
           CY4             -0.00000     0.00000    -0.00000    -0.00000     0.00000
           CZ4             -0.01673     0.02936    -0.01990    -0.02897     0.02533
           CX5              0.04601     0.00170    -0.04782     0.00102     0.03457
           CY5              0.00000     0.00000    -0.00000    -0.00000     0.00000
           CZ5             -0.01212    -0.00333     0.01275     0.00372    -0.00922
           CX6             -0.00802    -0.00982    -0.00320     0.01302     0.00931
           CY6              0.00000    -0.00000    -0.00000     0.00000     0.00000
           CZ6              0.02022     0.04132     0.02473    -0.04090    -0.03454
           HX7             -0.21413     0.32492     0.19057     0.33766     0.27361
           HY7              0.00001    -0.00001    -0.00001    -0.00001    -0.00001
           HZ7             -0.21037     0.32854     0.19794     0.33453     0.27430
           HX8              0.53173     0.02721     0.53046    -0.00181     0.37439
           HY8             -0.00007    -0.00000    -0.00007    -0.00000    -0.00005
           HZ8             -0.14151    -0.01099    -0.14138    -0.00534    -0.09978
           HX9             -0.06813    -0.12609     0.06662    -0.12636     0.10076
           HY9              0.00001     0.00002    -0.00001     0.00002    -0.00001
           HZ9              0.24061     0.47455    -0.26612     0.45844    -0.37417
           HX10             0.21420    -0.32484     0.19064     0.33756    -0.27365
           HY10             0.00002    -0.00003     0.00002     0.00003    -0.00003
           HZ10             0.21048    -0.32852     0.19806     0.33449    -0.27439
           HX11            -0.53175    -0.02696     0.53043    -0.00175    -0.37440
           HY11            -0.00001    -0.00000     0.00001     0.00000    -0.00001
           HZ11             0.14157     0.01093    -0.14142    -0.00535     0.09982
           HX12             0.06813     0.12614     0.06659    -0.12644    -0.10078
           HY12             0.00000     0.00000     0.00000    -0.00000    -0.00000
           HZ12            -0.24053    -0.47455    -0.26593     0.45856     0.37412


 Normal Modes of low/zero frequencies

                                  1           2           3           4           5
 Wavenumbers [cm-1]            0.00        0.00        0.00        0.00        0.00
 Intensities [km/mol]          0.00        0.00        0.00        0.00        0.00
 Intensities [relative]        0.00        0.00        0.00        0.00        0.00
           CX1              0.00000    -0.00000     0.00000     0.00000     0.13534
           CY1              0.10042     0.09619     0.03196    -0.10417     0.00000
           CZ1             -0.05884     0.08051    -0.07517    -0.02002    -0.04056
           CX2              0.00480     0.03065    -0.01085    -0.01430     0.07987
           CY2              0.15379     0.07612    -0.05517     0.00059     0.00000
           CZ2             -0.05754     0.08877    -0.07810    -0.02386    -0.05550
           CX3              0.00833     0.05312    -0.01882    -0.02481     0.03921
           CY3              0.09972     0.06666    -0.04726     0.13393    -0.00000
           CZ3             -0.06106     0.06635    -0.07015    -0.01341    -0.01494
           CX4              0.00704     0.04494    -0.01591    -0.02098     0.05400
           CY4             -0.00772     0.07726     0.04779     0.16252    -0.00000
           CZ4             -0.06587     0.03568    -0.05930     0.00092     0.04057
           CX5              0.00224     0.01430    -0.00506    -0.00667     0.10946
           CY5             -0.06108     0.09733     0.13492     0.05777    -0.00000
           CZ5             -0.06716     0.02743    -0.05638     0.00478     0.05550
           CX6             -0.00127    -0.00818     0.00289     0.00382     0.15013
           CY6             -0.00701     0.10680     0.12700    -0.07558     0.00000
           CZ6             -0.06365     0.04985    -0.06431    -0.00570     0.01494
           HX7             -0.00273    -0.01745     0.00618     0.00815     0.16691
           HY7              0.14240     0.10354     0.02582    -0.20770     0.00000
           HZ7             -0.05611     0.09792    -0.08133    -0.02815    -0.07205
           HX8              0.00580     0.03699    -0.01310    -0.01728     0.06839
           HY8              0.23720     0.06789    -0.12896    -0.02161     0.00000
           HZ8             -0.05382     0.11258    -0.08653    -0.03499    -0.09859
           HX9              0.01207     0.07692    -0.02725    -0.03592    -0.00386
           HY9              0.14115     0.05107    -0.11490     0.21527    -0.00000
           HZ9             -0.06006     0.07276    -0.07242    -0.01641    -0.02653
           HX10             0.00978     0.06239    -0.02210    -0.02914     0.02242
           HY10            -0.04969     0.06991     0.05393     0.26606    -0.00000
           HZ10            -0.06859     0.01828    -0.05313     0.00904     0.07206
           HX11             0.00125     0.00795    -0.00281    -0.00371     0.12095
           HY11            -0.14450     0.10556     0.20871     0.07996    -0.00000
           HZ11            -0.07089     0.00362    -0.04794     0.01589     0.09860
           HX12            -0.00500    -0.03197     0.01132     0.01493     0.19320
           HY12            -0.04845     0.12238     0.19466    -0.15692     0.00000
           HZ12            -0.06465     0.04343    -0.06204    -0.00271     0.02654

                                  6
 Wavenumbers [cm-1]            0.00
 Intensities [km/mol]          0.00
 Intensities [relative]        0.00
           CX1              0.00000
           CY1             -0.05967
           CZ1              0.02543
           CX2              0.07666
           CY2             -0.04777
           CZ2              0.04608
           CX3              0.13286
           CY3             -0.01459
           CZ3             -0.00998
           CX4              0.11241
           CY4              0.00670
           CZ4             -0.08668
           CX5              0.03577
           CY5             -0.00520
           CZ5             -0.10733
           CX6             -0.02044
           CY6             -0.03839
           CZ6             -0.05127
           HX7             -0.04364
           HY7             -0.08544
           HZ7              0.06896
           HX8              0.09253
           HY8             -0.06430
           HZ8              0.10564
           HX9              0.19237
           HY9             -0.00535
           HZ9              0.00605
           HX10             0.15605
           HY10             0.03247
           HZ10            -0.13021
           HX11             0.01989
           HY11             0.01133
           HZ11            -0.16688
           HX12            -0.07996
           HY12            -0.04763
           HZ12            -0.06730


 Frequencies dumped to record   5400.2

 Zero point energy:  0.10658860 [H]    23393.49 [1/CM]      279.85 [KJ/MOL]
 Frequency information read from record  5400.2


 **********************************************************************************************************************************
 DATASETS  * FILE   NREC   LENGTH (MB)   RECORD NAMES
              1      19      163.08       500      610      700      900      950      970     1000      129      960     1100   
                                          VAR    BASINP    GEOM    SYMINP    ZMAT    AOBASIS   BASIS     P2S    ABASIS      S 
                                         1400     1410     1200     1210     1080     1600     1650     1300     1700   
                                           T        V       H0       H01     AOSYM     SMH    MOLCAS    ERIS     OPER   

              2       7        1.15       700     1000      520     2100     5300     5450     5400   
                                         GEOM     BASIS   MCVARS     RHF     HESS     NMOD     FREQ   

              4       5       11.57      4100     4000     4200     4300     4400   

 PROGRAMS   *        TOTAL      FREQ      OPTG    HF-SCF       INT
 CPU TIMES  *      2088.16   1765.97    282.48     34.61      4.96
 REAL TIME  *       502.83 SEC
 DISK USED  *       694.01 MB
 **********************************************************************************************************************************

 Dump information in style MOLDEN to benzene.molden                                                                  

 Molecular orbitals read from record     2100.2  Type=RHF/CANONICAL  
 Occupation numbers read from record     2100.2  Type=RHF/RHF  
 Orbital energies read from record       2100.2  Type=RHF/CANONICAL  
 Redundancy group numbers read from rec  2100.2  Type=RHF/RHF  

 DUMP ORBITAL  1.1 AS ORBITAL    1  occ=    2.0000  eig=  -11.2306  GROUP=   2
 DUMP ORBITAL  2.1 AS ORBITAL    2  occ=    2.0000  eig=  -11.2300  GROUP=   2
 DUMP ORBITAL  3.1 AS ORBITAL    3  occ=    2.0000  eig=  -11.2300  GROUP=   2
 DUMP ORBITAL  4.1 AS ORBITAL    4  occ=    2.0000  eig=  -11.2287  GROUP=   2
 DUMP ORBITAL  5.1 AS ORBITAL    5  occ=    2.0000  eig=  -11.2287  GROUP=   2
 DUMP ORBITAL  6.1 AS ORBITAL    6  occ=    2.0000  eig=  -11.2281  GROUP=   2
 DUMP ORBITAL  7.1 AS ORBITAL    7  occ=    2.0000  eig=   -1.1538  GROUP=   2
 DUMP ORBITAL  8.1 AS ORBITAL    8  occ=    2.0000  eig=   -1.0163  GROUP=   2
 DUMP ORBITAL  9.1 AS ORBITAL    9  occ=    2.0000  eig=   -1.0163  GROUP=   2
 DUMP ORBITAL 10.1 AS ORBITAL   10  occ=    2.0000  eig=   -0.8246  GROUP=   2
 DUMP ORBITAL 11.1 AS ORBITAL   11  occ=    2.0000  eig=   -0.8246  GROUP=   2
 DUMP ORBITAL 12.1 AS ORBITAL   12  occ=    2.0000  eig=   -0.7122  GROUP=   2
 DUMP ORBITAL 13.1 AS ORBITAL   13  occ=    2.0000  eig=   -0.6426  GROUP=   2
 DUMP ORBITAL 14.1 AS ORBITAL   14  occ=    2.0000  eig=   -0.6204  GROUP=   2
 DUMP ORBITAL 15.1 AS ORBITAL   15  occ=    2.0000  eig=   -0.5887  GROUP=   2
 DUMP ORBITAL 16.1 AS ORBITAL   16  occ=    2.0000  eig=   -0.5887  GROUP=   2
 DUMP ORBITAL 17.1 AS ORBITAL   17  occ=    2.0000  eig=   -0.5033  GROUP=   2
 DUMP ORBITAL 18.1 AS ORBITAL   18  occ=    2.0000  eig=   -0.4937  GROUP=   2
 DUMP ORBITAL 19.1 AS ORBITAL   19  occ=    2.0000  eig=   -0.4937  GROUP=   2
 DUMP ORBITAL 20.1 AS ORBITAL   20  occ=    2.0000  eig=   -0.3360  GROUP=   2
 DUMP ORBITAL 21.1 AS ORBITAL   21  occ=    2.0000  eig=   -0.3360  GROUP=   2

 Total charge:      42.000000
 Frequency information read from record  5400.2

 **********************************************************************************************************************************

 HF/6-311G(D,P)//HF/6-311G(D,P) energy=   -230.754097665097

    OPTG(HF-SCF)          HF-SCF
   -230.75409767   -230.75116117
 **********************************************************************************************************************************
 Molpro calculation terminated
