[Molden Format]
[Molpro variables]
_NUMVAR=  1095.000000000000    
_AVOGAD= 0.6022140760000000E+24
_BOLTZ= 0.1380649000000000E-22
_CLIGHTSI=  299792458.0000000    
_JOULE= 0.4359744722207100E-17
_JPCAL=  4.184000000000000    
_PLANCK= 0.6626070150000000E-33
_BOHR= 0.5291772109030000E-10
_ECHARG= 0.1602176634000000E-18
_ENULL= 0.8854187812800001E-11
_MU= 0.1660539066600000E-26
_EMASS= 0.9109383701500001E-30
_AMU2AU=  1822.888486217313    
_CLIGHT=  29979245800.00000    
_EV= 0.3674932217565494E-01
_KJOULE= 0.3808798847133432E-03
_KJOULE/MOL= 0.3808798847133432E-03
_CM= 0.4556335252912009E-05
_CM-1= 0.4556335252912009E-05
_DEB2SI= 0.3335640951981520E-29
_KCAL= 0.1593601437640628E-02
_KCAL/MOL= 0.1593601437640628E-02
_KELVIN= 0.3166811563455608E-05
_HERTZ= 0.1519829846057038E-15
_HZ= 0.1519829846057038E-15
_TOA= 0.5291772109030000    
_TOANG= 0.5291772109030000    
_TORAD= 0.1745329251994330E-01
_TOCM=  219474.6313631965    
_TODEBYE=  2.541746473194078    
_TOE= 0.4803204712570263E-09
_TOEV=  27.21138624598803    
_TOHERTZ=  6579683920501656.    
_TOHZ=  6579683920501656.    
_TOK=  315775.0248040668    
_TOKCAL=  627.5094740630558    
_TOKELVIN=  315775.0248040668    
_TOKJ=  2625.499639479825    
_TOKJOULE=  2625.499639479825    
_TOKG= 0.1660539066600000E-26
_ANG=  1.889726124625770    
_ANGSTROM=  1.889726124625770    
_RPAREF=  0.000000000000000    
_RPADISS=  0.000000000000000    
_IGNORE_UNDEF=  2.000000000000000    
_STRICTCHECK=  0.000000000000000    
!SEWARD=  0.000000000000000    
!MULTI=  0.000000000000000    
!DFMULTI=  0.000000000000000    
_SEW_ONEEL=  0.000000000000000    
_CPPDONE=FALSE
_DKROLL_DONE=  0.000000000000000    
_FNUC_DONE=  0.000000000000000    
_FOCKDONE=TRUE
_GRADONE=FALSE
_HESSDONE=TRUE
_INTDONE=TRUE
_SCFDONE=TRUE
_MODUL_BLOCK=FALSE
_MODUL_SLATER=FALSE
_MODUL_MRCC=FALSE
_MODUL_NBO6=FALSE
_MODUL_NECI=FALSE
_MODUL_AIMS=TRUE
_MODUL_HDF5=FALSE
_MODUL_GECCO=FALSE
_ISWINDOWS=FALSE
_MRCC_EXEC=
_FITC_AO_SAVED=FALSE
_FITC_MO_SAVED=FALSE
_SHARED_FS=TRUE
_LSTYP=SEWARD
_INTYP=INTS
_GEOMTYP=ZMAT
_GRADTYP=ALASKA
_DIRECT=FALSE
_DKHO= -1.000000000000000    
_FNUC=  0.000000000000000    
_SYNCM=  0.000000000000000    
_BASIS=6-311G(D,P)
_ZCENTRE=MASS
_ZORIENT=  1.000000000000000    
_NELEC=  42.00000000000000    
!SPIN=  0.000000000000000    
_OPTCONV= 0.1068648806558031E-02
_QSDSTEP=  0.000000000000000    
_QSDIRC=  0.000000000000000    
_PROGRAM=FREQ
_CPUSTEP=  1765.970000000000    
_SYSSTEP=  39.67000000000000    
_WALLSTEP=  393.5600000000000    
!DFSCF=  0.000000000000000    
!SCSGRD=  0.000000000000000    
_NCEN=  12.00000000000000    
_CPUTOT=  2088.160000000000    
_DFTEXFAC=  1.000000000000000    
_DMX=-0.9039023072311171E-06
_DMY= 0.9175165821033457E-04
_DMZ=-0.3246341589956125E-06
_DMX_SCF=-0.9039023072311171E-06
_DMY_SCF= 0.9175165821033457E-04
_DMZ_SCF=-0.3246341589956125E-06
_FREQUENCIES= 0.3270473418201401E-04
_HOMO=  21.10000000000000    
_EHOMO=-0.3359669995143261    
_LUMO=  22.10000000000000    
_ELUMO= 0.1364628155931908    
_ENERGY= -230.7540976650965    
_ENERGY_METHOD=HF
_ENERGY_BASIS=6-311G(D,P)
_GEOMETRY_METHOD=HF
_GEOMETRY_BASIS=6-311G(D,P)
_ENUC=  204.9123462145056    
_GRADENERG= -230.7540974769522    
_GRADEXFAC=  9999.000000000000    
_GRADMETHOD=  1.000000000000000    
_NMRMETHOD=  0.000000000000000    
_NMRMAGNET=  0.000000000000000    
_VIRIAL= 0.2739405580866241E-02
!GRID_FREEZE= -1.000000000000000    
!NEESE_INDEX=  0.000000000000000    
_ITERATIONS=  11.00000000000000    
_LASTNELEC=  42.00000000000000    
_LASTSPIN=  0.000000000000000    
_LASTSYM=  1.000000000000000    
_MPP_PROG=  0.000000000000000    
_MSNSTATES=  0.000000000000000    
_RS2PHASE=  0.000000000000000    
_IPROC_MPP=  0.000000000000000    
_IPROC_MPPX=  0.000000000000000    
_NPROC_MPP=  1.000000000000000    
_NPROC_MPPX=  1.000000000000000    
_NPROC_SMP=  8.000000000000000    
_NUMSTEP=  0.000000000000000    
_OPTCONVMX= 0.3195481806802472E-03
_OPTCONVRMS= 0.3084923380677253E-03
_OPTGRAD= 0.4782329672609100E-03
_OPTGRADMX= 0.1915209392864270E-03
_OPTGRADRMS= 0.7970549454348500E-04
_OPTSTEP=  3.000000000000000    
_ORBITAL=  2100.200000000000    
_PI=  3.141592653589793    
_SEIG_MIN= 0.2005189775682001E-03
_SEWPROP=TRUE
_STATUS=  1.000000000000000    
_SYSTOT=  55.55000000000000    
_VERSION=  2022003.000000000    
_WALLTOT=  502.8300000000000    
_ZPE= 0.1065885997154702    
_DATE=05-Aug-25
_LASTORB=0
_OUTPUT=/home/zwa/Overlap_Integral_Project/overlap_integral_gaussian/molpro_files/benzene/benzene.out
_PGROUP=C1
_TIME=16:54:38
_LIBMOL=/usr/local/molpro/molpro_2022.3.0_sockets/lib/
_VIGRDC=  0.000000000000000    
!VIBCNT=  0.000000000000000    
!RGHFCNT=  0.000000000000000    
!SURFREC=  0.000000000000000    
!XSURFREC=  0.000000000000000    
!XPOLYREC=  0.000000000000000    
!ROTREC=  0.000000000000000    
!POLYREC=  0.000000000000000    
!DIPREC=  0.000000000000000    
!DIP4DREC=  0.000000000000000    
!DIPROT=  0.000000000000000    
!DIP4DROT=  0.000000000000000    
!PTREC=  0.000000000000000    
!PT4DREC=  0.000000000000000    
!VSCFREC=  0.000000000000000    
!VCIREC=  0.000000000000000    
!PVCIREC=  0.000000000000000    
!VMP2REC=  0.000000000000000    
!VMCSCFREC=  0.000000000000000    
!VMRCIREC=  0.000000000000000    
!VIBSTATEREC=  0.000000000000000    
!VIBSTATECNT=  0.000000000000000    
!VIBINFO=  0.000000000000000    
!GAREC=  0.000000000000000    
!SCFORB=  21002.00000000000    
!DEFCORE=  6.000000000000000    
!SCORE=  0.000000000000000    
!NEWMOL=  0.000000000000000    
!NEWSYM=  0.000000000000000    
_SLFILES=slscratch
_NGSSTO=  9.000000000000000    
_SIN=SIN
_COS=COS
_TAN=TAN
_ACOS=ACOS
_ASIN=ASIN
_ATAN=ATAN
_COSH=COSH
_SINH=SINH
_TANH=TANH
_ABS=ABS
_MOD=MOD
_ERF=ERF
_REFC=REFC
_ERFC=ERFC
_HYPOT=HYPOT
_J0=J0
_J1=J1
_JN=JN
_GAMMA=GAMMA
_LGAMMA=LGAMMA
_Y0=Y0
_Y1=Y1
_YN=YN
_EXP=EXP
_LOG=LOG
_LOG10=LOG10
_SQRT=SQRT
_INT=INT
_NINT=NINT
_MAX=MAX
_MIN=MIN
_COSMO=  0.000000000000000    
_COSMOIT=  0.000000000000000    
_COSMOES=  0.000000000000000    
_COSMOEDS=  0.000000000000000    
_COSMOEC=  0.000000000000000    
_COSMOEDCORR=  0.000000000000000    
_FEPSI=  1.000000000000000    
_SL_IsMM=  0.000000000000000    
_SL_NSYM=  1.000000000000000    
_SL_System_BitSw=  0.000000000000000    
_SL_Unique_atoms=  0.000000000000000    
_SL_GRAD=  0.000000000000000    
_SL_MAXUPD_Hess=  5.000000000000000    
_SL_N_PRINT_COD=  5.000000000000000    
_SL_PRINT_CODES=  0.000000000000000    
_SL_BasType=  0.000000000000000    
_SL_Energy_Pred=  0.000000000000000    
_SL_New_Coords=  0.000000000000000    
_SL_Total_Nuclea=  0.000000000000000    
_SL_Highest_Mltp=  0.000000000000000    
_SL_Ref_Geom=  0.000000000000000    
_SL_Symmetry_ope=  1.000000000000000    
_SL_agrad=  0.000000000000000    
_SL_GrdMax=  0.000000000000000    
_SL_GrdNorm=  0.000000000000000    
_SL_GrdRMS=  0.000000000000000    
_SL_Hss_Q=  0.000000000000000    
_SL_Hss_X=  0.000000000000000    
_SL_BMxOld=  0.000000000000000    
_SL_KtB=  0.000000000000000    
_SL_TROld=  0.000000000000000    
_SL_No_of_Intern=  0.000000000000000    
_SL_Hess=  0.000000000000000    
_SL_K=  0.000000000000000    
!LATTICE= -1.000000000000000    
!NEWLATTICE=  0.000000000000000    
!LATGRAD_VAR=FALSE
!SEW_LATTICE=  1.000000000000000    
!AIC_ONEEL=  0.000000000000000    
!LOCAL=  0.000000000000000    
!SAVEDOM= -1.000000000000000    
!RESTDOM= -1.000000000000000    
!SAVEDOM_HF= -1.000000000000000    
!RESTDOM_HF= -1.000000000000000    
!HESSREC=  5300.200000000000    
!FREQREC=  5400.200000000000    
!NMODREC=  5450.200000000000    
!GTASKS=  0.000000000000000    
!HTASKS=  0.000000000000000    
!SAVEDOM_EOM= -1.000000000000000    
!RESTDOM_EOM= -1.000000000000000    
!GRADSTATE= -1.000000000000000    
!DEBUG=  0.000000000000000    
!CFIT_CPHF=  0.000000000000000    
!RDOMAUX_CPHF=  0.000000000000000    
!THRAO_CPHF= 0.1000000000000000E-11
!THRMO_CPHF= 0.1000000000000000E-11
!THROV_CPHF= 0.1000000000000000E-11
!THRSW_CPHF= 0.1000000000000000E-11
!THRPROD_CPHF= 0.1000000000000000E-11
!THRAOPR_CPHF= 0.1000000000000000E-11
!CFIT_SCFGRD=  0.000000000000000    
!RDOMAUX_SCFGRD=  0.000000000000000    
!THRAO_SCFGRD= 0.1000000000000000E-11
!THRMO_SCFGRD= 0.1000000000000000E-11
!THROV_SCFGRD= 0.1000000000000000E-11
!THRSW_SCFGRD= 0.1000000000000000E-11
!THRPROD_SCFGRD= 0.1000000000000000E-11
!THRAOPR_SCFGRD= 0.1000000000000000E-11
!LOCFIT_SCF=  0.000000000000000    
!LOCFIT_MP2=  0.000000000000000    
_RIDOM=  0.000000000000000    
!CC2_METHOD=  0.000000000000000    
_BASIS2006=FALSE
_SVDDEL= -1.000000000000000    
_SVDDELA= -1.000000000000000    
_SVDDELP= -1.000000000000000    
_SVDDELF= -1.000000000000000    
_SVDDELS= -1.000000000000000    
_SVDDEL_ABS= -1.000000000000000    
_SVDDELA_ABS= -1.000000000000000    
_SVDDELP_ABS= -1.000000000000000    
_SVDDELF_ABS= -1.000000000000000    
_SVDDELS_ABS= -1.000000000000000    
_MAXBASIS=  0.000000000000000    
!OPT_CONICAL=  0.000000000000000    
!CLEARSP_JGRID=  0.000000000000000    
_GRDHYBR=  0.000000000000000    
_STATEGRAD=  1.000000000000000    
_4EXT_NDISKS=  1.000000000000000    
!EMBEDFLAG=  1.000000000000000    
!EMBED=FALSE
!EMBED_F12=FALSE
!EMBEDNUC=  0.000000000000000    
_EMBEDENERGY=  0.000000000000000    
!EMBED_DFC=FALSE
!NUM_VOIDS=  0.000000000000000    
_IBODY=  0.000000000000000    
_EMBE_CORR=  0.000000000000000    
!EMBED_PROJ=FALSE
!EMB_PROJ_ZMU=  1000000.000000000    
!CORRECTION_HF=  0.000000000000000    
!EMBED_AORB=  0.000000000000000    
!EMBED_NACORR=  0.000000000000000    
!EMBED_MP2=FALSE
!EMBED_TRUNC_PERTURBATION=FALSE
!EMBED_FROZEN=  0.000000000000000    
!EMBED_ACTIVE=  0.000000000000000    
_CHANGE_BASIS=FALSE
_RESTORE_BASIS=FALSE
_FIX_EMBED_GUESS=FALSE
_EMBED_SCF=FALSE
_HUZINAGA_T=FALSE
_HUZINAGA_F=FALSE
_HUZINAGA=FALSE
_HUZINAGA_CORRECT=FALSE
!FASTLATGRAD=  1.000000000000000    
!FASTVLAMBDA= -1.000000000000000    
!IFORCE= -1.000000000000000    
!USESYM= -1.000000000000000    
_SINDEX=  0.000000000000000    
_AVDOM_OSV=  0.000000000000000    
_AVDOM_PNO=  0.000000000000000    
_AVDOM_PAO=  0.000000000000000    
_AVDOM_LMO=  0.000000000000000    
_CC2OSV_FLAG=  0.000000000000000    
_EOMCCSD_CONV=FALSE
_TMADC2_FLAG=FALSE
_PROPADC2_FLAG=FALSE
_LEN_VirQ=  0.000000000000000    
_GRDCC2LR_FLAG=FALSE
_GRDADC2_FLAG=FALSE
_RO_VGLOBAL=  0.000000000000000    
_OPT=FALSE
_FREQ=FALSE
_HESS=FALSE
_CMRCC_callName=EMPTY
_CMRCC_callCount=  0.000000000000000    
_GECCO_CIROOT=  1.000000000000000    
_SYM_CATION=  1.000000000000000    
_MON_A=FALSE
_MON_B=FALSE
GX1=-0.9783097708569124    
GY1= 0.2149317771358679E-04
GZ1=-0.9808868473904324    
GX2= -1.338615348360197    
GY2=-0.1230843745970110E-03
GZ2= 0.3568520622984800    
GX3=-0.3603196488620334    
GY3= 0.1053088878682662E-03
GZ3=  1.337682542504851    
GX4= 0.9783504498254937    
GY4=-0.3348909340865890E-04
GZ4= 0.9808461376667061    
GX5=  1.338630155497201    
GY5=-0.5915396862912059E-04
GZ5=-0.3567962783846242    
GX6= 0.3602646992508247    
GY6= 0.6276891326905223E-04
GZ6= -1.337697449615926    
GX7= -1.737942169214174    
GY7= 0.4820709991031156E-04
GZ7= -1.742431308248374    
GX8= -2.377974492563657    
GY8= 0.4488911033891595E-04
GZ8= 0.6338425668394994    
GX9=-0.6400014696757014    
GY9= 0.1311343500507560E-03
GZ9=  2.376320532178039    
GX10=  1.737898904802753    
GY10= 0.5455928622763550E-04
GZ10=  1.742473850539667    
GX11=  2.377958789908461    
GY11=-0.2139894570816090E-04
GZ11=-0.6339010106028627    
GX12= 0.6400540487954863    
GY12= 0.5404957089599220E-04
GZ12= -2.376306620087708    
CX1= -1.848737531964958    
CY1= 0.4061621942658933E-04
CZ1= -1.853607500815511    
CX2= -2.529616394621291    
CY2=-0.2325957582091962E-03
CZ2= 0.6743526647520206    
CX3=-0.6809054536705688    
CY3= 0.1990049565599485E-03
CZ3=  2.527853647027239    
CX4=  1.848814404074609    
CY4=-0.6328521470437541E-04
CZ4=  1.853530570587059    
CX5=  2.529644376054918    
CY5=-0.1117847998937424E-03
CZ5=-0.6742472484326734    
CX6= 0.6808016139547296    
CY6= 0.1186160552188971E-03
CZ6= -2.527881817384481    
HX7= -3.284234720252805    
HY7= 0.9109821609296038E-04
HZ7= -3.292717963562811    
HX8= -4.493720522291251    
HY8= 0.8482812451865822E-04
HZ8=  1.197788857456458    
HX9= -1.209427497045060    
HY9= 0.2478080071267343E-03
HZ9=  4.490594990141453    
HX10=  3.284152962364276    
HY10= 0.1031021085252978E-03
HZ10=  3.292798356842069    
HX11=  4.493690848573502    
HY11=-0.4043814674416015E-04
HZ11= -1.197899300162907    
HX12=  1.209526857181328    
HY12= 0.1021388861469692E-03
HZ12= -4.490568700100907    
[Atoms] Angs
C     1    6        -0.9783097709        0.0000214932       -0.9808868474
C     2    6        -1.3386153484       -0.0001230844        0.3568520623
C     3    6        -0.3603196489        0.0001053089        1.3376825425
C     4    6         0.9783504498       -0.0000334891        0.9808461377
C     5    6         1.3386301555       -0.0000591540       -0.3567962784
C     6    6         0.3602646993        0.0000627689       -1.3376974496
H     7    1        -1.7379421692        0.0000482071       -1.7424313082
H     8    1        -2.3779744926        0.0000448891        0.6338425668
H     9    1        -0.6400014697        0.0001311344        2.3763205322
H    10    1         1.7378989048        0.0000545593        1.7424738505
H    11    1         2.3779587899       -0.0000213989       -0.6339010106
H    12    1         0.6400540488        0.0000540496       -2.3763066201
[GTO]
   1 0
 s    6  1.00
  0.4563240000D+04  0.1966650249D-02
  0.6820240000D+03  0.1523060193D-01
  0.1549730000D+03  0.7612690966D-01
  0.4445530000D+02  0.2608010331D+00
  0.1302900000D+02  0.6164620782D+00
  0.1827730000D+01  0.2210060280D+00
 s    3  1.00
  0.2096420000D+02  0.1146600807D+00
  0.4803310000D+01  0.9199996477D+00
  0.1459330000D+01 -0.3030682134D-02
 s    1  1.00
  0.4834560000D+00  0.1000000000D+01
 s    1  1.00
  0.1455850000D+00  0.1000000000D+01
 p    3  1.00
  0.2096420000D+02  0.4024869267D-01
  0.4803310000D+01  0.2375939567D+00
  0.1459330000D+01  0.8158538515D+00
 p    1  1.00
  0.4834560000D+00  0.1000000000D+01
 p    1  1.00
  0.1455850000D+00  0.1000000000D+01
 d    1  1.00
  0.6260000000D+00  0.1000000000D+01
  
   2 0
 s    6  1.00
  0.4563240000D+04  0.1966650249D-02
  0.6820240000D+03  0.1523060193D-01
  0.1549730000D+03  0.7612690966D-01
  0.4445530000D+02  0.2608010331D+00
  0.1302900000D+02  0.6164620782D+00
  0.1827730000D+01  0.2210060280D+00
 s    3  1.00
  0.2096420000D+02  0.1146600807D+00
  0.4803310000D+01  0.9199996477D+00
  0.1459330000D+01 -0.3030682134D-02
 s    1  1.00
  0.4834560000D+00  0.1000000000D+01
 s    1  1.00
  0.1455850000D+00  0.1000000000D+01
 p    3  1.00
  0.2096420000D+02  0.4024869267D-01
  0.4803310000D+01  0.2375939567D+00
  0.1459330000D+01  0.8158538515D+00
 p    1  1.00
  0.4834560000D+00  0.1000000000D+01
 p    1  1.00
  0.1455850000D+00  0.1000000000D+01
 d    1  1.00
  0.6260000000D+00  0.1000000000D+01
  
   3 0
 s    6  1.00
  0.4563240000D+04  0.1966650249D-02
  0.6820240000D+03  0.1523060193D-01
  0.1549730000D+03  0.7612690966D-01
  0.4445530000D+02  0.2608010331D+00
  0.1302900000D+02  0.6164620782D+00
  0.1827730000D+01  0.2210060280D+00
 s    3  1.00
  0.2096420000D+02  0.1146600807D+00
  0.4803310000D+01  0.9199996477D+00
  0.1459330000D+01 -0.3030682134D-02
 s    1  1.00
  0.4834560000D+00  0.1000000000D+01
 s    1  1.00
  0.1455850000D+00  0.1000000000D+01
 p    3  1.00
  0.2096420000D+02  0.4024869267D-01
  0.4803310000D+01  0.2375939567D+00
  0.1459330000D+01  0.8158538515D+00
 p    1  1.00
  0.4834560000D+00  0.1000000000D+01
 p    1  1.00
  0.1455850000D+00  0.1000000000D+01
 d    1  1.00
  0.6260000000D+00  0.1000000000D+01
  
   4 0
 s    6  1.00
  0.4563240000D+04  0.1966650249D-02
  0.6820240000D+03  0.1523060193D-01
  0.1549730000D+03  0.7612690966D-01
  0.4445530000D+02  0.2608010331D+00
  0.1302900000D+02  0.6164620782D+00
  0.1827730000D+01  0.2210060280D+00
 s    3  1.00
  0.2096420000D+02  0.1146600807D+00
  0.4803310000D+01  0.9199996477D+00
  0.1459330000D+01 -0.3030682134D-02
 s    1  1.00
  0.4834560000D+00  0.1000000000D+01
 s    1  1.00
  0.1455850000D+00  0.1000000000D+01
 p    3  1.00
  0.2096420000D+02  0.4024869267D-01
  0.4803310000D+01  0.2375939567D+00
  0.1459330000D+01  0.8158538515D+00
 p    1  1.00
  0.4834560000D+00  0.1000000000D+01
 p    1  1.00
  0.1455850000D+00  0.1000000000D+01
 d    1  1.00
  0.6260000000D+00  0.1000000000D+01
  
   5 0
 s    6  1.00
  0.4563240000D+04  0.1966650249D-02
  0.6820240000D+03  0.1523060193D-01
  0.1549730000D+03  0.7612690966D-01
  0.4445530000D+02  0.2608010331D+00
  0.1302900000D+02  0.6164620782D+00
  0.1827730000D+01  0.2210060280D+00
 s    3  1.00
  0.2096420000D+02  0.1146600807D+00
  0.4803310000D+01  0.9199996477D+00
  0.1459330000D+01 -0.3030682134D-02
 s    1  1.00
  0.4834560000D+00  0.1000000000D+01
 s    1  1.00
  0.1455850000D+00  0.1000000000D+01
 p    3  1.00
  0.2096420000D+02  0.4024869267D-01
  0.4803310000D+01  0.2375939567D+00
  0.1459330000D+01  0.8158538515D+00
 p    1  1.00
  0.4834560000D+00  0.1000000000D+01
 p    1  1.00
  0.1455850000D+00  0.1000000000D+01
 d    1  1.00
  0.6260000000D+00  0.1000000000D+01
  
   6 0
 s    6  1.00
  0.4563240000D+04  0.1966650249D-02
  0.6820240000D+03  0.1523060193D-01
  0.1549730000D+03  0.7612690966D-01
  0.4445530000D+02  0.2608010331D+00
  0.1302900000D+02  0.6164620782D+00
  0.1827730000D+01  0.2210060280D+00
 s    3  1.00
  0.2096420000D+02  0.1146600807D+00
  0.4803310000D+01  0.9199996477D+00
  0.1459330000D+01 -0.3030682134D-02
 s    1  1.00
  0.4834560000D+00  0.1000000000D+01
 s    1  1.00
  0.1455850000D+00  0.1000000000D+01
 p    3  1.00
  0.2096420000D+02  0.4024869267D-01
  0.4803310000D+01  0.2375939567D+00
  0.1459330000D+01  0.8158538515D+00
 p    1  1.00
  0.4834560000D+00  0.1000000000D+01
 p    1  1.00
  0.1455850000D+00  0.1000000000D+01
 d    1  1.00
  0.6260000000D+00  0.1000000000D+01
  
   7 0
 s    3  1.00
  0.3386500000D+02  0.2549381454D-01
  0.5094790000D+01  0.1903731086D+00
  0.1158790000D+01  0.8521614860D+00
 s    1  1.00
  0.3258400000D+00  0.1000000000D+01
 s    1  1.00
  0.1027410000D+00  0.1000000000D+01
 p    1  1.00
  0.7500000000D+00  0.1000000000D+01
  
   8 0
 s    3  1.00
  0.3386500000D+02  0.2549381454D-01
  0.5094790000D+01  0.1903731086D+00
  0.1158790000D+01  0.8521614860D+00
 s    1  1.00
  0.3258400000D+00  0.1000000000D+01
 s    1  1.00
  0.1027410000D+00  0.1000000000D+01
 p    1  1.00
  0.7500000000D+00  0.1000000000D+01
  
   9 0
 s    3  1.00
  0.3386500000D+02  0.2549381454D-01
  0.5094790000D+01  0.1903731086D+00
  0.1158790000D+01  0.8521614860D+00
 s    1  1.00
  0.3258400000D+00  0.1000000000D+01
 s    1  1.00
  0.1027410000D+00  0.1000000000D+01
 p    1  1.00
  0.7500000000D+00  0.1000000000D+01
  
  10 0
 s    3  1.00
  0.3386500000D+02  0.2549381454D-01
  0.5094790000D+01  0.1903731086D+00
  0.1158790000D+01  0.8521614860D+00
 s    1  1.00
  0.3258400000D+00  0.1000000000D+01
 s    1  1.00
  0.1027410000D+00  0.1000000000D+01
 p    1  1.00
  0.7500000000D+00  0.1000000000D+01
  
  11 0
 s    3  1.00
  0.3386500000D+02  0.2549381454D-01
  0.5094790000D+01  0.1903731086D+00
  0.1158790000D+01  0.8521614860D+00
 s    1  1.00
  0.3258400000D+00  0.1000000000D+01
 s    1  1.00
  0.1027410000D+00  0.1000000000D+01
 p    1  1.00
  0.7500000000D+00  0.1000000000D+01
  
  12 0
 s    3  1.00
  0.3386500000D+02  0.2549381454D-01
  0.5094790000D+01  0.1903731086D+00
  0.1158790000D+01  0.8521614860D+00
 s    1  1.00
  0.3258400000D+00  0.1000000000D+01
 s    1  1.00
  0.1027410000D+00  0.1000000000D+01
 p    1  1.00
  0.7500000000D+00  0.1000000000D+01


[MO]
 Sym=      1.1
 Ene=     -11.2306
 Spin= Alpha
 Occup=    2.000000
1 0.22987410616450
2 0.19034998109135
3 0.001996979790523
4 -0.000143482725740
5 0.000026496888269
6 -0.000000030778831
7 0.000026612595979
8 0.000093100231185
9 -0.000000000681326
10 0.000093277141796
11 -0.000007910206600
12 0.000000056610221
13 -0.000007934219991
14 0.000063463006191
15 -0.000126591132658
16 0.000063128126467
17 -0.000000000064761
18 -0.000055032749087
19 -0.000000002732923
20 0.22989619846770
21 0.19036828171208
22 0.001997141580089
23 -0.000143481288462
24 0.000036273468407
25 0.000000019681116
26 -0.000009696795051
27 0.000127363274085
28 0.000000071908172
29 -0.000033891107418
30 -0.000010843754957
31 -0.000000116383321
32 0.000002859900695
33 0.000021992548715
34 -0.000126612885185
35 0.000104620336470
36 -0.000000003929591
37 0.000027448951233
38 0.000000002084602
39 0.22987740178194
40 0.19035270825449
41 0.001997017292684
42 -0.000143458973975
43 0.000009791020345
44 -0.000000059584454
45 -0.000036260153485
46 0.000034231416367
47 -0.000000027808105
48 -0.000127267882269
49 -0.000002937800706
50 0.000000100890439
51 0.000010802826460
52 0.000104486923753
53 -0.000126590381755
54 0.000022103458002
55 -0.000000001749568
56 0.000027686361160
57 0.000000009956071
58 0.22990101730808
59 0.19037226809595
60 0.001997201707249
61 -0.000143449382619
62 -0.000026527514115
63 0.000000003884338
64 -0.000026583219879
65 -0.000093032736320
66 0.000000026655671
67 -0.000093361034619
68 0.000007895606484
69 -0.000000066574354
70 0.000007960610834
71 0.000063369227554
72 -0.000126609426759
73 0.000063240199205
74 0.000000002468784
75 -0.000055040293499
76 0.000000005352353
77 0.22992244297364
78 0.19039001672434
79 0.001997357121405
80 -0.000143466682890
81 -0.000036284286672
82 -0.000000005190175
83 0.000009657360750
84 -0.000127346595526
85 0.000000027679854
86 0.000033998192971
87 0.000010852447099
88 0.000000013781941
89 -0.000002896440664
90 0.000021944585206
91 -0.000126630658455
92 0.000104686073248
93 -0.000000004965050
94 0.000027348439083
95 0.000000000317199
96 0.22987572144333
97 0.19035131651639
98 0.001997003041848
99 -0.000143452302108
100 -0.000009722653683
101 -0.000000011152911
102 0.000036278735641
103 -0.000034324714699
104 -0.000000024190912
105 0.000127242325226
106 0.000002906901239
107 -0.000000012567879
108 -0.000010804764235
109 0.000104531175115
110 -0.000126589088025
111 0.000022057912910
112 0.000000000523201
113 0.000027596597795
114 -0.000000005828945
115 0.000186266127476
116 -0.000083886242848
117 0.000116608527557
118 -0.000004138896628
119 -0.000000006204220
120 -0.000004166261823
121 0.000186282990370
122 -0.000083896476395
123 0.000116614082417
124 -0.000005671200669
125 0.000000008412214
126 0.000001529828779
127 0.000186269387239
128 -0.000083889097297
129 0.000116613194873
130 -0.000001540451289
131 -0.000000010466059
132 0.000005667277955
133 0.000186288149627
134 -0.000083904609705
135 0.000116618347718
136 0.000004163954187
137 0.000000005511847
138 0.000004143792114
139 0.000186304427003
140 -0.000083914856426
141 0.000116621617146
142 0.000005681448788
143 -0.000000002384361
144 -0.000001497245365
145 0.000186267862228
146 -0.000083886817486
147 0.000116613670198
148 0.000001516652204
149 0.000000002595928
150 -0.000005673376995
 Sym=      2.1
 Ene=     -11.2300
 Spin= Alpha
 Occup=    2.000000
1 0.20711733996119
2 0.17152701507734
3 0.001699346563183
4 0.000157011544500
5 -0.000116636991434
6 -0.000000034284531
7 0.000109831294883
8 0.000037193607354
9 0.000000006319517
10 0.000108907532196
11 0.000138875251209
12 0.000000041388830
13 -0.000280541710735
14 0.000011054506140
15 -0.000139653318447
16 0.000128598812307
17 0.000000000386005
18 -0.000056223786546
19 -0.000000010181423
20 0.32063339500787
21 0.26553689812445
22 0.002630577671824
23 0.000242696954318
24 -0.000015815998925
25 0.000000022103975
26 -0.000031582995081
27 0.000151732503982
28 0.000000077074610
29 -0.000051594212371
30 -0.000134164430756
31 0.000000008571279
32 0.000101967760303
33 0.000036670464453
34 -0.000216190843127
35 0.000179520378673
36 -0.000000003720498
37 0.000030529730609
38 0.000000015173910
39 0.11352445565873
40 0.094016837933877
41 0.000931310345031
42 0.000085621419364
43 -0.000188662160898
44 -0.000000031190572
45 -0.000048199952039
46 -0.000044868617835
47 -0.000000007009598
48 -0.000070579495666
49 0.000333645636515
50 0.000000028865894
51 0.000147247553521
52 0.000025217877863
53 -0.000076525686459
54 0.000051307808596
55 -0.000000013131894
56 0.000087038580238
57 0.000000006719545
58 -0.20720882647925
59 -0.17160281860132
60 -0.001699938599558
61 -0.000156601128789
62 -0.000116632908011
63 0.000000001074161
64 0.000109815770190
65 0.000036930772969
66 -0.000000010077948
67 0.000108947834979
68 0.000138621644929
69 -0.000000066157274
70 -0.000280836720456
71 -0.000010936410321
72 0.000139696557565
73 -0.000128760147243
74 0.000000007732533
75 0.000056211009346
76 -0.000000023989113
77 -0.32064538773212
78 -0.26554684151884
79 -0.002630627693732
80 -0.000242614773877
81 -0.000015815297858
82 0.000000016578235
83 -0.000031554049270
84 0.000151607454097
85 -0.000000049811683
86 -0.000051907163227
87 -0.000134237282825
88 0.000000031798132
89 0.000102042483095
90 -0.000036570304767
91 0.000216199308359
92 -0.000179629003592
93 0.000000008794539
94 -0.000030310009653
95 0.000000006284024
96 -0.11336095628075
97 -0.093881390671478
98 -0.000930150289429
99 -0.000086151884742
100 -0.000188673186029
101 0.000000005888078
102 -0.000048210764489
103 -0.000044715663547
104 0.000000015276861
105 -0.000070704551371
106 0.000333758933532
107 -0.000000044768179
108 0.000146780935717
109 -0.000025215239371
110 0.000076441546851
111 -0.000051226307480
112 -0.000000001390235
113 -0.000086965911605
114 0.000000006467682
115 0.000168751875898
116 -0.000131834510522
117 0.000063957626726
118 -0.000034294846434
119 -0.000000005407937
120 0.000021505795344
121 0.000261235841444
122 -0.000204165327115
123 0.000098975558752
124 -0.000015667640994
125 0.000000003427446
126 -0.000004617756411
127 0.000092492304981
128 -0.000072375983411
129 0.000035016669494
130 -0.000047657232779
131 -0.000000004211940
132 -0.000007689147127
133 -0.000168821819040
134 0.000132029090608
135 -0.000063935085981
136 -0.000034355607357
137 0.000000005853372
138 0.000021493624663
139 -0.000261244390272
140 0.000204205646045
141 -0.000098963978852
142 -0.000015692022054
143 -0.000000002734844
144 -0.000004666159996
145 -0.000092364741063
146 0.000072121928304
147 -0.000035020847364
148 -0.000047624096598
149 0.000000004600154
150 -0.000007745065627
 Sym=      3.1
 Ene=     -11.2300
 Spin= Alpha
 Occup=    2.000000
1 -0.25066897071599
2 -0.20759492723232
3 -0.002056497676066
4 -0.000189403403299
5 -0.000089769491146
6 0.000000032654325
7 0.000097432422878
8 -0.000117965181319
9 -0.000000021379798
10 -0.000058763921005
11 0.000259735538855
12 0.000000070460829
13 -0.000086616843177
14 -0.000133475754037
15 0.000169003007773
16 -0.000035527253736
17 -0.000000005126352
18 0.000067638048696
19 0.000000009761043
20 0.054178613198734
21 0.044868777971218
22 0.000444399442482
23 0.000040589414185
24 0.000051595334455
25 0.000000007382344
26 0.000198265968249
27 0.000042687166721
28 0.000000017852226
29 0.000055752090162
30 -0.000123400590519
31 -0.000000035383947
32 -0.000359605019803
33 0.000044829022521
34 -0.000036517533492
35 -0.000008311489029
36 -0.000000005361307
37 0.000082844498971
38 -0.000000029972975
39 0.30469041174438
40 0.25233349230689
41 0.002499807015735
42 0.000230791702985
43 0.000068247069625
44 -0.000000075870737
45 0.000025410829500
46 0.000061531753333
47 -0.000000006529202
48 -0.000140823470478
49 -0.000168074702505
50 -0.000000028869667
51 0.000108066412728
52 0.000177805341816
53 -0.000205439831976
54 0.000027634490160
55 0.000000004858664
56 0.000014847548892
57 0.000000023824429
58 0.25057830553992
59 0.20751981528299
60 0.002055866791024
61 0.000189751834357
62 -0.000089788700593
63 0.000000009687682
64 0.000097451462934
65 -0.000117863186843
66 0.000000026663787
67 -0.000059032128888
68 0.000259481296885
69 -0.000000031248281
70 -0.000086802053099
71 0.000133286803950
72 -0.000168963537587
73 0.000035676733637
74 0.000000000195431
75 -0.000067645476246
76 0.000000003805128
77 -0.054052801264923
78 -0.044764540461155
79 -0.000443556475065
80 -0.000041118477897
81 0.000051602850895
82 -0.000000000041716
83 0.000198274141814
84 0.000042859157286
85 -0.000000012957274
86 0.000055646603578
87 -0.000122925932761
88 0.000000045662240
89 -0.000359712027059
90 -0.000044771493376
91 0.000036461157573
92 0.000008310335803
93 -0.000000000134605
94 -0.000082814784172
95 -0.000000011118143
96 -0.30475095538286
97 -0.25238364790532
98 -0.002500236979788
99 -0.000230595339093
100 0.000068212283116
101 0.000000006307720
102 0.000025403647485
103 0.000061816493863
104 0.000000028162458
105 -0.000140685062679
106 -0.000168150984163
107 -0.000000021077106
108 0.000108228651750
109 -0.000177920138563
110 0.000205470255216
111 -0.000027550116653
112 0.000000005689227
113 -0.000014647285336
114 0.000000010101715
115 -0.000204231775360
116 0.000159684639024
117 -0.000077346186637
118 -0.000015404077563
119 -0.000000005376271
120 0.000030798232005
121 0.000044139086794
122 -0.000034591756188
123 0.000016682561773
124 0.000010703067026
125 0.000000005091581
126 0.000049427227651
127 0.000248248315226
128 -0.000193993230388
129 0.000094068785117
130 0.000013789897515
131 -0.000000000775593
132 0.000017434471139
133 0.000204161771017
134 -0.000159521734663
135 0.000077353340222
136 -0.000015404672119
137 0.000000006221115
138 0.000030739290970
139 -0.000044042522026
140 0.000034342628161
141 -0.000016703201913
142 0.000010764118735
143 -0.000000004430859
144 0.000049401780482
145 -0.000248295442409
146 0.000194086945102
147 -0.000094067704964
148 0.000013829219157
149 0.000000000760134
150 0.000017469020189
 Sym=      4.1
 Ene=     -11.2287
 Spin= Alpha
 Occup=    2.000000
1 -0.20814688510732
2 -0.17242173160966
3 -0.001521156138964
4 0.000198006764883
5 -0.000043995782506
6 0.000000015524537
7 0.000179019977838
8 -0.000104611316606
9 0.000000006198153
10 -0.000023952589166
11 0.000191587404426
12 -0.000000016847029
13 0.000167525353193
14 -0.000133682286861