
 Working directory              : /tmp/zwa/molpro.Uro23DWPz5/
 Global scratch directory       : /tmp/zwa/molpro.Uro23DWPz5/
 Wavefunction directory         : /home/zwa/wfu/
 Main file repository           : /tmp/zwa/molpro.Uro23DWPz5/

 id        : liedlgroup

 Nodes     nprocs
 rh2-c724     6
 GA implementation: MPI file
 GA implementation (serial work in mppx): MPI file

 Using customized tuning parameters: mindgm=1; mindgv=20; mindgc=4; mindgr=1; noblas=0; minvec=7
 default implementation of scratch files=sf  


 Variables initialized (1015), CPU time= 0.00 sec
 memory,1000,m
 orient,mass
 geometry = {
  O,                 -2.37974678 ,   3.40506324 ,   0.00000000
  H,                 -1.41974678 ,   3.40506324 ,   0.00000000
  H,                 -2.70020136 ,   4.30999907 ,   0.00000000
 }
 mass,iso
 basis=6-311g(d,p)
 {hf
 start,atden}
 
 {mp2}
 
 optg
 {frequencies, symm=auto,print=0,analytical}
 put,molden,h2omp2.molden
 Commands initialized (834), CPU time= 0.01 sec, 672 directives.
 Default parameters read. Elapsed time= 0.09 sec

 Checking input...
 Passed
1


                                         ***  PROGRAM SYSTEM MOLPRO  ***
                                       Copyright, TTI GmbH Stuttgart, 2015
                                    Version 2022.2 linked Thu Sep 29 12:37:28 2022


 **********************************************************************************************************************************
 LABEL *                                                                                 
  (8 PROC) 64 bit mpp version                                                            DATE: 21-Aug-25          TIME: 12:46:09  
 **********************************************************************************************************************************

 SHA1:             51306cdc306ce2a111a2867affebcb289530e0a7
 **********************************************************************************************************************************

 Memory per process:      1000 MW
 Total memory per node:   6000 MW

 GA preallocation disabled
 GA check disabled

 Variable memory set to 1000.0 MW

 ZCENTRE=MASS


 Geometry recognized as XYZ



 Using masses of most abundant isotopes

 **********************************************************************************************************************************
 SETTING BASIS          =    6-311G(D,P)


 Recomputing integrals since basis changed


 Using spherical harmonics

 Library entry O      S 6-311G               selected for orbital group  1
 Library entry O      P 6-311G               selected for orbital group  1
 Library entry O      D 6-311G*              selected for orbital group  1
 Library entry H      S 6-311G               selected for orbital group  2
 Library entry H      P 6-311G**             selected for orbital group  2


 PROGRAM * SEWARD (Integral evaluation for generally contracted gaussian basis sets)     Author: Roland Lindh, 1990

 Geometry written to block  1 of record 700

 Orientation using atomic masses  
 Molecule type: Asymmetric top,     Order of principal axis = 2
 Symmetry elements: X,Y
 Rotational constants:     282.5913843    919.6760006    407.9403386 GHz

 Point group  C2v 



 ATOMIC COORDINATES

 NR  ATOM    CHARGE       X              Y              Z

   1  O       8.00    0.000000000    0.000000000   -0.117177192
   2  H       1.00    0.000000000    1.481499721    0.929843299
   3  H       1.00    0.000000000   -1.481499721    0.929843299

 Bond lengths in Bohr (Angstrom)

 1-2  1.814137077  1-3  1.814137077
     ( 0.959999999)     ( 0.959999999)

 Bond angles

  2-1-3  109.49999976

 NUCLEAR CHARGE:                   10
 NUMBER OF PRIMITIVE AOS:          48
 NUMBER OF SYMMETRY AOS:           47
 NUMBER OF CONTRACTIONS:           30   (   14A1  +    5B1  +    9B2  +    2A2  )
 NUMBER OF INNER CORE ORBITALS:     0   (    0A1  +    0B1  +    0B2  +    0A2  )
 NUMBER OF OUTER CORE ORBITALS:     1   (    1A1  +    0B1  +    0B2  +    0A2  )
 NUMBER OF VALENCE ORBITALS:        6   (    3A1  +    1B1  +    2B2  +    0A2  )


 NUCLEAR REPULSION ENERGY    9.15711604

 Eigenvalues of metric

         1 0.189E-01 0.900E-01 0.114E+00 0.151E+00 0.288E+00 0.441E+00 0.590E+00 0.833E+00
         2 0.215E+00 0.457E+00 0.912E+00 0.118E+01 0.228E+01
         3 0.399E-01 0.994E-01 0.122E+00 0.402E+00 0.562E+00 0.835E+00 0.125E+01 0.156E+01
         4 0.646E+00 0.132E+01


 Contracted 2-electron integrals neglected if value below      1.0D-11
 AO integral compression algorithm  1   Integral accuracy      1.0D-11

     1.573 MB (compressed) written to integral file (100.0%)

     Node minimum: 0.262 MB, node maximum: 0.262 MB


 NUMBER OF SORTED TWO-ELECTRON INTEGRALS:       4884.     BUFFER LENGTH:  32768
 NUMBER OF SEGMENTS:   1  SEGMENT LENGTH:       4884      RECORD LENGTH: 524288

 Memory used in sort:       0.56 MW

 SORT1 READ       47172. AND WROTE        4541. INTEGRALS IN      1 RECORDS. CPU TIME:     0.02 SEC, REAL TIME:     0.03 SEC
 SORT2 READ       30106. AND WROTE       32916. INTEGRALS IN      6 RECORDS. CPU TIME:     0.00 SEC, REAL TIME:     0.00 SEC

 Node minimum:        4832.  Node maximum:        6144. integrals

 OPERATOR DM      FOR CENTER  0  COORDINATES:    0.000000    0.000000    0.000000


 **********************************************************************************************************************************
 DATASETS  * FILE   NREC   LENGTH (MB)   RECORD NAMES
              1      18       28.60       500      610      700      900      950      970     1000      129      960     1100   
                                          VAR    BASINP    GEOM    SYMINP    ZMAT    AOBASIS   BASIS     P2S    ABASIS      S 
                                         1400     1410     1200     1210     1080     1600     1650     1700   
                                           T        V       H0       H01     AOSYM     SMH    MOLCAS    OPER   

 PROGRAMS   *        TOTAL       INT
 CPU TIMES  *         0.56      0.42
 REAL TIME  *         0.88 SEC
 DISK USED  *        28.89 MB (local),      197.57 MB (total)
 GA USED    *         0.00 MB       (max)       0.00 MB       (current)
 **********************************************************************************************************************************


 Program * Restricted Hartree-Fock

 Orbital guess generated from atomic densities.

 Initial occupancy:   3   1   1   0

 NELEC=   10   SYM=1   MS2= 0   THRE=1.0D-08   THRD=1.0D-06   THRG=1.0D-06  HFMA2=F  DIIS_START=2   DIIS_MAX=10   DIIS_INCORE=F

 Level shifts:    0.00 (CLOSED)    0.00 (OPEN)    0.30 (GAP_MIN)

 ITER           ETOT              DE          GRAD        DDIFF     DIIS  NEXP   TIME(IT)  TIME(TOT)  DIAG
   1      -76.00714630     -76.00714630     0.00D+00     0.15D+00     0     0       0.00      0.01    start
   2      -76.03628294      -0.02913663     0.33D-01     0.23D-01     1     0       0.00      0.01    diag
   3      -76.04544799      -0.00916505     0.18D-01     0.79D-02     2     0       0.00      0.01    diag
   4      -76.04565661      -0.00020862     0.19D-02     0.16D-02     3     0       0.00      0.01    diag
   5      -76.04567625      -0.00001964     0.51D-03     0.65D-03     4     0       0.00      0.01    diag
   6      -76.04567696      -0.00000071     0.85D-04     0.13D-03     5     0       0.00      0.01    diag
   7      -76.04567698      -0.00000002     0.15D-04     0.21D-04     6     0       0.01      0.02    diag
   8      -76.04567698      -0.00000000     0.21D-05     0.27D-05     7     0       0.00      0.02    fixocc
   9      -76.04567698      -0.00000000     0.39D-06     0.48D-06     8     0       0.00      0.02    diag
  10      -76.04567698      -0.00000000     0.90D-07     0.95D-07     0     0       0.00      0.02    diag/orth

 Final occupancy:   3   1   1   0

 !RHF STATE 1.1 Energy                -76.045676984554
  RHF One-electron energy            -123.103209673131
  RHF Two-electron energy              37.900416648371
  RHF Kinetic energy                   76.040621292867
  RHF Nuclear energy                    9.157116040206
  RHF Virial quotient                  -1.000066486723

 !RHF STATE 1.1 Dipole moment           0.00000000     0.00000000     0.82250013
 Dipole moment /Debye                   0.00000000     0.00000000     2.09058680

 Orbital energies:

           1.1          2.1          3.1          4.1          5.1
    -20.542429    -1.335968    -0.561211     0.150997     0.596347

           1.2          2.2          3.2
     -0.497601     1.004855     1.742865

           1.3          2.3          3.3
     -0.713979     0.216037     0.575900

           1.4          2.4
      1.498937     3.567344


 HOMO      1.2    -0.497601 =     -13.5404eV
 LUMO      4.1     0.150997 =       4.1088eV
 LUMO-HOMO         0.648598 =      17.6492eV

 Orbitals saved in record  2100.2


 **********************************************************************************************************************************
 DATASETS  * FILE   NREC   LENGTH (MB)   RECORD NAMES
              1      18       28.60       500      610      700      900      950      970     1000      129      960     1100   
                                          VAR    BASINP    GEOM    SYMINP    ZMAT    AOBASIS   BASIS     P2S    ABASIS      S 
                                         1400     1410     1200     1210     1080     1600     1650     1700   
                                           T        V       H0       H01     AOSYM     SMH    MOLCAS    OPER   

              2       4        0.38       700     1000      520     2100   
                                         GEOM     BASIS   MCVARS     RHF  

 PROGRAMS   *        TOTAL    HF-SCF       INT
 CPU TIMES  *         0.58      0.02      0.42
 REAL TIME  *         0.90 SEC
 DISK USED  *        29.04 MB (local),      198.52 MB (total)
 GA USED    *         0.00 MB       (max)       0.00 MB       (current)
 **********************************************************************************************************************************


 PROGRAM * MP2 (Closed-shell)     Authors: C. Hampel, H.-J. Werner, 1991, M. Deegan, P.J. Knowles, 1992


 Convergence thresholds:  THRVAR = 1.00D-12  THRDEN = 1.00D-08

 Number of core orbitals:           1 (   1   0   0   0 )
 Number of closed-shell orbitals:   4 (   2   1   1   0 )
 Number of external orbitals:      25 (  11   4   8   2 )

 Molecular orbitals read from record     2100.2  Type=RHF/CANONICAL  

 Number of N-1 electron functions:               4
 Number of N-2 electron functions:              10
 Number of singly external CSFs:                34
 Number of doubly external CSFs:              1397
 Total number of CSFs:                        1432

 Length of J-op  integral file:               0.00 MB
 Length of K-op  integral file:               0.02 MB

 Integral transformation finished. Total CPU:   0.00 sec, npass=  1  Memory used:   0.07 MW

 Memory needed for MP2:                      0.00 MW

 SCS-MP2 correlation energy:           -0.213295932614   (PS=  1.200000  PT=  0.333333)
 SCS-MP2 total energy:                -76.258972917168


  Reference energy                    -76.045676984554
  MP2 singlet pair energy              -0.135407606349
  MP2 triplet pair energy              -0.081653793741
  MP2 correlation energy               -0.217061400091

 !MP2 total energy                    -76.262738384645

 KEXT needed  1 integral passes. Memory used:   0.04 MW  CPU time:      0.00 sec

 CPHF start vector      0.2 not found

 Starting Coupled-perturbed Hartree-Fock, convergence threshold= 1.0D-06

 ITER   MIC  DIIS      VAR         VARC       CPU
   1     0     1    0.15D-01    0.96D-03     0.00
   2     4     2    0.18D-03    0.41D-04     0.00
   3     3     3    0.78D-05    0.56D-06     0.00
   4     2     4    0.55D-06    0.62D-07     0.00

 CPHF convergence reached in  4 macroiterations and    9 microiterations.   Accuracy: 5.4717D-07

 CPHF solution written to record  4100.2

 Dipole moments (unrelaxed):            0.00000000     0.00000000     0.81246952
 Orbital relaxation contribution:      -0.00000000    -0.00000000    -0.02297630
 !MP2 STATE 1.1 Dipole moment           0.00000000     0.00000000     0.78949322
 Dipole moment /Debye                   0.00000000     0.00000000     2.00669161

 CPU-time for density and lagrangian:                  0.01 sec
 CPU-time for coupled-perturbed hartree-fock:          0.00 sec

 MP2 gradient info saved on record         5200.1


 **********************************************************************************************************************************
 DATASETS  * FILE   NREC   LENGTH (MB)   RECORD NAMES
              1      20       28.66       500      610      700      900      950      970     1000      129      960     1100   
                                          VAR    BASINP    GEOM    SYMINP    ZMAT    AOBASIS   BASIS     P2S    ABASIS      S 
                                         1400     1410     1200     1210     1080     1600     1650     1700     1380     5200   
                                           T        V       H0       H01     AOSYM     SMH    MOLCAS    OPER     JKOP      MP2  

              2       5        0.39       700     1000      520     2100     4100   
                                         GEOM     BASIS   MCVARS     RHF     CPHF   

 PROGRAMS   *        TOTAL       MP2    HF-SCF       INT
 CPU TIMES  *         0.63      0.05      0.02      0.42
 REAL TIME  *         0.96 SEC
 DISK USED  *        29.09 MB (local),      198.81 MB (total)
 SF USED    *         0.13 MB
 GA USED    *         0.00 MB       (max)       0.00 MB       (current)
 **********************************************************************************************************************************


 PROGRAM * OPT (Geometry optimization)     Authors: F. Eckert and H.-J. Werner


 BFGS update of hessian

 *** Long output written to logfile /home/zwa/Overlap_Integral_Project/overlap_integral_gaussian/h20cal/mp2/h2o.log ***


 Geometry optimization using default procedure for command MP2

 Geometry written to block  1 of record 700

 Making model hessian for cartesian coordinates

 Entering Rational Function Geometry Optimization

 ITER.   ENERGY(OLD)    ENERGY(NEW)      DE          GRADMAX     GRADNORM    GRADRMS     STEPMAX     STEPLEN     STEPRMS   CPU-time
   1   -76.26273838   -76.26381377    -0.00107539  0.01978481  0.01999129  0.00666376  0.08032223  0.08035405  0.04639243      0.61
   2   -76.26381377   -76.26397124    -0.00015747  0.00654947  0.00839850  0.00279950  0.04281123  0.04342778  0.02507304      1.25
   3   -76.26397124   -76.26397185    -0.00000061  0.00094988  0.00100147  0.00033382  0.00127591  0.00141161  0.00081499      1.87
   4   -76.26397185   -76.26397189    -0.00000004  0.00027265  0.00027757  0.00009252  0.00026554  0.00032880  0.00018983      2.50

 END OF GEOMETRY OPTIMIZATION.

 Geometry written to block  1 of record 700

 Recomputing wavefunction for reoriented structure

 Current geometry (xyz format, in Angstrom)

    3
 MP2/6-311G(D,P)  ENERGY=-76.26397189
 O          0.0000000000        0.0000000000       -0.0671389262
 H          0.0000000000        0.7466668332        0.5327716029
 H          0.0000000000       -0.7466668332        0.5327716029

 **********************************************************************************************************************************


 **********************************************************************************************************************************
 DATASETS  * FILE   NREC   LENGTH (MB)   RECORD NAMES
              1      20       28.66       500      610      700      900      950      970     1000      129      960     1100   
                                          VAR    BASINP    GEOM    SYMINP    ZMAT    AOBASIS   BASIS     P2S    ABASIS      S 
                                         1400     1410     1200     1210     1080     1600     1650     1700     1380     5200   
                                           T        V       H0       H01     AOSYM     SMH    MOLCAS    OPER     JKOP      MP2  

              2       6        0.40       700     1000      520     2100     4100     9001   
                                         GEOM     BASIS   MCVARS     RHF     CPHF    DEN_MP2    

 PROGRAMS   *        TOTAL      OPTG       MP2    HF-SCF       INT
 CPU TIMES  *         3.62      2.99      0.05      0.02      0.42
 REAL TIME  *         3.39 SEC
 DISK USED  *        29.10 MB (local),      198.86 MB (total)
 SF USED    *         0.14 MB
 GA USED    *         0.00 MB       (max)       0.00 MB       (current)
 **********************************************************************************************************************************


 PROGRAM * HESSIAN

 Computing numerical hessian using default procedure for command MP2

 Symmetry elements for unique displacements: X  Y  

 Using AUTO symmetry option

 Running default procedure: HF-SCF000  MP2


 Numerically approximating hessian using central gradient differences

 Task list generated. Total number of displacements:      9

 All   9 tasks completed.  CPU=      1.44 sec, Elapsed=      1.16 sec.

 MP2 hessian saved to record  5300.2

 PROGRAM * FREQUENCIES (Calculation of harmonic vibrational spectra for MP2)


 Permanent Dipole Moment [debye]
   1-  3    0.000000    0.000000    2.100673

 Dipole Moment Norm    2.1006733 [debye]

 Dipole Moment Derivatives [debye/ang]
              1             2             3             4             5             6             7             8
    1   -3.50155020    0.00000000    0.00000000    1.75084449    0.00000000    0.00000000    1.75084449    0.00000000
    2    0.00000000   -2.22499724    0.00000000    0.00000000    1.11250811   -0.51284300    0.00000000    1.11250811
    3    0.00000000    0.00000000   -1.48831171    0.00000000   -0.24700920    0.74413685    0.00000000    0.24700920
              9
    1    0.00000000
    2    0.51284300
    3    0.74413685

 Projecting out rotations and translations

 Force Constants (Second Derivatives of the Energy) in [a.u.]
                             OX1         OY1         OZ1         HX2         HY2     
           OX1           0.0000000
           OY1           0.0000000   0.6932495
           OZ1           0.0000000   0.0000000   0.4877606
           HX2          -0.0000000   0.0000000   0.0000000   0.0000000
           HY2           0.0000000  -0.3466248  -0.2143640   0.0000000   0.3797739
           HZ2           0.0000000  -0.2784961  -0.2438803   0.0000000   0.2464301
           HX3          -0.0000000   0.0000000   0.0000000   0.0000000   0.0000000
           HY3           0.0000000  -0.3466248   0.2143640   0.0000000  -0.0331491
           HZ3           0.0000000   0.2784961  -0.2438803   0.0000000  -0.0320661
                             HZ2         HX3         HY3         HZ3     
           HZ2           0.2338192
           HX3           0.0000000   0.0000000
           HY3           0.0320661   0.0000000   0.3797739
           HZ3           0.0100611   0.0000000  -0.2464301   0.2338192


 Atomic Masses
   1-  3   15.994910    1.007825    1.007825

 Mass weighted Second Derivative Matrix
                             OX1         OY1         OZ1         HX2         HY2     
           OX1           0.0000000
           OY1           0.0000000   0.0433419
           OZ1           0.0000000   0.0000000   0.0304947
           HX2          -0.0000000   0.0000000   0.0000000   0.0000000
           HY2           0.0000000  -0.0863329  -0.0533910   0.0000000   0.3768252
           HZ2           0.0000000  -0.0693643  -0.0607426   0.0000000   0.2445167
           HX3          -0.0000000   0.0000000   0.0000000   0.0000000   0.0000000
           HY3           0.0000000  -0.0863329   0.0533910   0.0000000  -0.0328917
           HZ3           0.0000000   0.0693643  -0.0607426   0.0000000  -0.0318171
                             HZ2         HX3         HY3         HZ3     
           HZ2           0.2320038
           HX3           0.0000000   0.0000000
           HY3           0.0318171   0.0000000   0.3768252
           HZ3           0.0099830   0.0000000  -0.2445167   0.2320038


 Mass Weighted 2nd Derivative Matrix Eigenvalues
   1-  9    0.000000    0.000000    0.000000    0.000000    0.000000    0.000000    0.105195    0.577003    0.609296

 Mass Weighted 2nd Derivative Matrix Eigenvectors
              1             2             3             4             5             6             7             8
    1    0.00000000    0.00000000    1.00000000    0.00000000    0.00000000    0.00000000    0.00000000    0.00000000
    2    0.61674209   -0.03090185    0.00000000    0.30353595    0.59844368    0.31188302    0.00000000    0.00000000
    3   -0.33936748   -0.06098186    0.00000000    0.55973713   -0.26168809    0.62242246   -0.26876359   -0.19920098
    4    0.37943240    0.66921723    0.00000000    0.40041582   -0.42153362   -0.26486964    0.00000000    0.00000000
    5    0.27667214    0.02290287    0.00000000   -0.20635177   -0.09762413    0.29762078   -0.42104888    0.56808260
    6   -0.23685726   -0.05346746    0.00000000    0.49216613    0.24278517   -0.11675054    0.53535120    0.39678916
    7   -0.38324086    0.73691552    0.00000000   -0.24949809    0.42153510    0.26484111    0.00000000    0.00000000
    8    0.27667214    0.02290287    0.00000000   -0.20635177   -0.09762413    0.29762078    0.42104888   -0.56808260
    9    0.06648383    0.02285260    0.00000000   -0.21116001   -0.37416105    0.42922672    0.53535120    0.39678916
              9
    1    0.00000000
    2   -0.26671022
    3    0.00000000
    4    0.00000000
    5    0.53126108
    6    0.42684247
    7    0.00000000
    8    0.53126108
    9   -0.42684247

   Low Vibration      Wavenumber
        Nr             [1/cm] 
        1                0.00
        2                0.00
        3                0.00
        4                0.00
        5                0.00
        6                0.00

     Vibration        Wavenumber
        Nr             [1/cm] 
        1             1667.26
        2             3904.75
        3             4012.53

 FREQUENCIES * CALCULATION OF NORMAL MODES FOR MP2


 Atomic Coordinates

  Nr  Atom  Charge       X              Y              Z

   1   O     8.00    0.000000000    0.000000000   -0.126874183
   2   H     1.00    0.000000000    1.410995821    1.006792417
   3   H     1.00    0.000000000   -1.410995821    1.006792417

 Gradient norm at reference geometry: 0.52453D-03

 ?WARNING: GRADIENT NORM NOT ZERO!

 Normal Modes

                              1 A1        2 A1        3 B2 
 Wavenumbers [cm-1]         1667.26     3904.75     4012.53
 Intensities [km/mol]         51.21        6.19       33.45
 Intensities [relative]      100.00       12.09       65.32
           OX1             -0.00000     0.00000     0.00000
           OY1              0.00000    -0.00000    -0.06669
           OZ1             -0.06720    -0.04981     0.00000
           HX2             -0.00000     0.00000     0.00000
           HY2             -0.41941     0.56587     0.52919
           HZ2              0.53327     0.39525     0.42518
           HX3              0.00000    -0.00000     0.00000
           HY3              0.41941    -0.56587     0.52919
           HZ3              0.53327     0.39525    -0.42518


	 Normal Modes of low/zero frequencies

					  1           2           3           4           5
	 Wavenumbers [cm-1]            0.00        0.00        0.00        0.00        0.00
	 Intensities [km/mol]          0.00        0.00        0.00        0.00        0.00
	 Intensities [relative]        0.00        0.00        0.00        0.00        0.00
		   OX1             -0.00000     0.00000     0.25004    -0.00000    -0.00000
		   OY1              0.15421    -0.00773     0.00000     0.07590     0.14963
		   OZ1             -0.08486    -0.01525     0.00000     0.13996    -0.06543
		   HX2              0.37796     0.66661    -0.00000     0.39886    -0.41989
		   HY2              0.27560     0.02281    -0.00000    -0.20555    -0.09724
		   HZ2             -0.23594    -0.05326     0.00000     0.49025     0.24184
		   HX3             -0.38175     0.73405    -0.00000    -0.24853     0.41990
		   HY3              0.27560     0.02281    -0.00000    -0.20555    -0.09724
		   HZ3              0.06623     0.02276    -0.00000    -0.21034    -0.37271

					  6
	 Wavenumbers [cm-1]            0.00
	 Intensities [km/mol]          0.00
	 Intensities [relative]        0.00
		   OX1              0.00000
		   OY1              0.07798
		   OZ1              0.15563
		   HX2             -0.26384
		   HY2              0.29646
		   HZ2             -0.11630
		   HX3              0.26381
		   HY3              0.29646
		   HZ3              0.42756


	 Frequencies dumped to record   5400.2

	 Zero point energy:  0.02183519 [H]     4792.27 [1/CM]       57.33 [KJ/MOL]
	 Frequency information read from record  5400.2

	 Recomputing wavefunction at initial geometry


	 **********************************************************************************************************************************
	 DATASETS  * FILE   NREC   LENGTH (MB)   RECORD NAMES
		      1      20       28.66       500      610      700      900      950      970     1000      129      960     1100   
						  VAR    BASINP    GEOM    SYMINP    ZMAT    AOBASIS   BASIS     P2S    ABASIS      S 
						 1400     1410     1200     1210     1080     1600     1650     1700     1380     5200   
						   T        V       H0       H01     AOSYM     SMH    MOLCAS    OPER     JKOP      MP2  

		      2       9        0.40       700     1000      520     2100     4100     9001     5300     5450     5400   
						 GEOM     BASIS   MCVARS     RHF     CPHF    DEN_MP2   HESS     NMOD     FREQ   

	 PROGRAMS   *        TOTAL      FREQ      OPTG       MP2    HF-SCF       INT
	 CPU TIMES  *         5.43      1.81      2.99      0.05      0.02      0.42
	 REAL TIME  *         4.99 SEC
	 DISK USED  *        34.44 MB (local),      229.86 MB (total)
	 SF USED    *         0.14 MB
	 GA USED    *         0.00 MB       (max)       0.00 MB       (current)
	 **********************************************************************************************************************************

	 Dump information in style MOLDEN to h2omp2.molden                                                                   

	 Molecular orbitals read from record     2100.2  Type=RHF/CANONICAL (state 1.1)
	 Occupation numbers read from record     2100.2  Type=RHF/RHF (state 1.1)
	 Orbital energies read from record       2100.2  Type=RHF/CANONICAL (state 1.1)
	 Redundancy group numbers read from rec  2100.2  Type=RHF/RHF (state 1.1)

	 DUMP ORBITAL  1.1 AS ORBITAL    1  occ=    2.0000  eig=  -20.5461  GROUP=   2
	 DUMP ORBITAL  2.1 AS ORBITAL    2  occ=    2.0000  eig=   -1.3428  GROUP=   2
	 DUMP ORBITAL  1.3 AS ORBITAL    3  occ=    2.0000  eig=   -0.7022  GROUP=   2
	 DUMP ORBITAL  3.1 AS ORBITAL    4  occ=    2.0000  eig=   -0.5760  GROUP=   2
	 DUMP ORBITAL  1.2 AS ORBITAL    5  occ=    2.0000  eig=   -0.5005  GROUP=   2

	 Total charge:      10.000000
	 Frequency information read from record  5400.2

	 **********************************************************************************************************************************

	 MP2/6-311G(D,P) energy=    -76.263971890545

	       OPTG(MP2)             MP2          HF-SCF
	    -76.26397189    -76.26273838    -76.04567698
	 **********************************************************************************************************************************
			 Molpro calculation terminated
