[Molden Format]
[Molpro variables]
_NUMVAR=  1031.000000000000    
_AVOGAD= 0.6022140760000000E+24
_BOLTZ= 0.1380649000000000E-22
_CLIGHTSI=  299792458.0000000    
_JOULE= 0.4359744722207100E-17
_JPCAL=  4.184000000000000    
_PLANCK= 0.6626070150000000E-33
_BOHR= 0.5291772109030000E-10
_ECHARG= 0.1602176634000000E-18
_ENULL= 0.8854187812800001E-11
_MU= 0.1660539066600000E-26
_EMASS= 0.9109383701500001E-30
_AMU2AU=  1822.888486217313    
_CLIGHT=  29979245800.00000    
_EV= 0.3674932217565494E-01
_KJOULE= 0.3808798847133432E-03
_KJOULE/MOL= 0.3808798847133432E-03
_CM= 0.4556335252912009E-05
_CM-1= 0.4556335252912009E-05
_DEB2SI= 0.3335640951981520E-29
_KCAL= 0.1593601437640628E-02
_KCAL/MOL= 0.1593601437640628E-02
_KELVIN= 0.3166811563455608E-05
_HERTZ= 0.1519829846057038E-15
_HZ= 0.1519829846057038E-15
_TOA= 0.5291772109030000    
_TOANG= 0.5291772109030000    
_TORAD= 0.1745329251994330E-01
_TOCM=  219474.6313631965    
_TODEBYE=  2.541746473194078    
_TOE= 0.4803204712570263E-09
_TOEV=  27.21138624598803    
_TOHERTZ=  6579683920501656.    
_TOHZ=  6579683920501656.    
_TOK=  315775.0248040668    
_TOKCAL=  627.5094740630558    
_TOKELVIN=  315775.0248040668    
_TOKJ=  2625.499639479825    
_TOKJOULE=  2625.499639479825    
_TOKG= 0.1660539066600000E-26
_ANG=  1.889726124625770    
_ANGSTROM=  1.889726124625770    
_RPAREF=  0.000000000000000    
_RPADISS=  0.000000000000000    
_IGNORE_UNDEF=  2.000000000000000    
_STRICTCHECK=  0.000000000000000    
!SEWARD=  0.000000000000000    
!MULTI=  0.000000000000000    
!DFMULTI=  0.000000000000000    
_SEW_ONEEL=  0.000000000000000    
_CPPDONE=FALSE
_DKROLL_DONE=  0.000000000000000    
_FNUC_DONE=  0.000000000000000    
_FOCKDONE=TRUE
_GRADONE=FALSE
_HESSDONE=TRUE
_INTDONE=TRUE
_SCFDONE=TRUE
_MODUL_BLOCK=FALSE
_MODUL_CUDA=FALSE
_MODUL_SLATER=FALSE
_MODUL_MRCC=FALSE
_MODUL_NBO6=FALSE
_MODUL_NECI=FALSE
_MODUL_AIMS=TRUE
_MODUL_GECCO=FALSE
_ISWINDOWS=FALSE
_MRCC_EXEC=
_FITC_AO_SAVED=  0.000000000000000    
_FITC_MO_SAVED=  0.000000000000000    
_SHARED_FS=TRUE
_LSTYP=SEWARD
_INTYP=INTS
_GEOMTYP=ZMAT
_GRADTYP=ALASKA
_DIRECT=FALSE
_DKHO= -1.000000000000000    
_FNUC=  0.000000000000000    
_SYNCM=  0.000000000000000    
_BASIS=6-311G(D,P)
_ZCENTRE=MASS
_ZORIENT=  1.000000000000000    
_NELEC=  10.00000000000000    
!SPIN=  0.000000000000000    
_OPTCONV= 0.3288012118766161E-03
_QSDSTEP=  0.000000000000000    
_QSDIRC=  0.000000000000000    
_PROGRAM=FREQ
_CPUSTEP=  0.000000000000000    
_SYSSTEP=  0.000000000000000    
_WALLSTEP=  0.000000000000000    
!DFMP2=  0.000000000000000    
!DFSCF=  0.000000000000000    
!SCSGRD=  0.000000000000000    
_CPUTOT=  5.430000000000001    
_CPUCCSD= 0.9999999999999787E-02
_SYSCCSD= 0.1000000000000001E-01
_WALLCCSD=  0.000000000000000    
_CPUF12=  0.000000000000000    
_SYSF12=  0.000000000000000    
_WALLF12=  0.000000000000000    
_CPUF12B=  0.000000000000000    
_SYSF12B=  0.000000000000000    
_WALLF12B=  0.000000000000000    
_CPUTRANS=  0.000000000000000    
_SYSTRANS=  0.000000000000000    
_WALLTRANS=  0.000000000000000    
_DFTEXFAC=  1.000000000000000    
_DMX=  0.000000000000000    
_DMY=  0.000000000000000    
_DMZ= 0.8264684497334063    
_DMX_SCF=  0.000000000000000    
_DMY_SCF=  0.000000000000000    
_DMZ_SCF= 0.8642742516503793    
_FREQUENCIES= 0.1474700755427320E-04
_HOMO=  1.200000000000000    
_EHOMO=-0.5005006820209525    
_LUMO=  4.100000000000000    
_ELUMO= 0.1496928823859031    
_EMP2= -76.26397189054516    
_EMP2_SING=-0.1358028680564552    
_EMP2_TRIP=-0.8191593614197563E-01
_EMP2_SCS= -76.26018644383616    
_ECSING=-0.1358028680564552    
_ECTRIP=-0.8191593614197563E-01
_ENERGC= -76.26397189054516    
_ENERG_CC=  0.000000000000000    
_ENERG_CV=  0.000000000000000    
_ENERG_VV=-0.2177188041984308    
_ENERGR= -76.04625308634674    
_ENERGY= -76.26397189054516    
_ENERGY_METHOD=MP2
_ENERGY_BASIS=6-311G(D,P)
_GEOMETRY_METHOD=
_GEOMETRY_BASIS=
_ENUC=  9.194126300263445    
_FREQSTEP=  10.00000000000000    
_GRADENERG= -76.26395276850957    
_GRADEXFAC=  9999.000000000000    
_GRADMETHOD=  8.000000000000000    
_NMRMETHOD=  0.000000000000000    
_NMRMAGNET=  0.000000000000000    
_GRADRECORD=TRUE
_VIRIAL=-0.8331026512710012E-02
!GRID_FREEZE= -1.000000000000000    
!NEESE_INDEX=  0.000000000000000    
_ITERATIONS=  1.000000000000000    
_LASTNELEC=  10.00000000000000    
_LASTSPIN=  0.000000000000000    
_LASTSYM=  1.000000000000000    
_MPP_PROG=  1.000000000000000    
_MSNSTATES=  0.000000000000000    
_RS2PHASE=  0.000000000000000    
_IPROC_MPP=  0.000000000000000    
_IPROC_MPPX=  0.000000000000000    
_NPROC_MPP=  6.000000000000000    
_NPROC_MPPX=  6.000000000000000    
_NPROC_SMP=  8.000000000000000    
_NUMSTEP=  0.000000000000000    
_OPTCONVMX= 0.2655438732492854E-03
_OPTCONVRMS= 0.1898334681868194E-03
_OPTGRAD= 0.2775692162975000E-03
_OPTGRADMX= 0.2726473492808616E-03
_OPTGRADRMS= 0.9252307209916665E-04
_OPTSTEP=  4.000000000000000    
_ORBITAL=  2100.200000000000    
_PI=  3.141592653589793    
_ECDIAG=-0.6708120794338486E-01
_EPDIAG=-0.6708120794338486E-01
_SEIG_MIN= 0.1774918565575969E-01
_SEWPROP=TRUE
_STATUS=  1.000000000000000    
_SYSTOT= 0.8800000000000000    
_T1DIAG=  0.000000000000000    
_VERSION=  2022002.000000000    
_WALLTOT=  4.990000000000000    
_ZPE= 0.2183518657273412E-01
_DATE=21-Aug-25
_LASTORB=0
_METHODC=MP2
_OUTPUT=/home/zwa/Overlap_Integral_Project/overlap_integral_gaussian/h20cal/mp2/h2o.out
_PGROUP=C2v
_TIME=12:46:09
_ANSATZ=
_LIBMOL=/usr/local/molpro/molpro_2022.2.3_sockets/lib/
_VIGRDC=  0.000000000000000    
!VIBCNT=  0.000000000000000    
!RGHFCNT=  0.000000000000000    
!SURFREC=  0.000000000000000    
!XSURFREC=  0.000000000000000    
!XPOLYREC=  0.000000000000000    
!ROTREC=  0.000000000000000    
!POLYREC=  0.000000000000000    
!DIPREC=  0.000000000000000    
!DIP4DREC=  0.000000000000000    
!DIPROT=  0.000000000000000    
!DIP4DROT=  0.000000000000000    
!PTREC=  0.000000000000000    
!PT4DREC=  0.000000000000000    
!VSCFREC=  0.000000000000000    
!VCIREC=  0.000000000000000    
!PVCIREC=  0.000000000000000    
!VMP2REC=  0.000000000000000    
!VMCSCFREC=  0.000000000000000    
!VMRCIREC=  0.000000000000000    
!VIBSTATEREC=  0.000000000000000    
!VIBSTATECNT=  0.000000000000000    
!VIBINFO=  0.000000000000000    
!GAREC=  0.000000000000000    
!SCFORB=  21002.00000000000    
!CIOCC=  3.000000000000000    
!CICORE=  1.000000000000000    
!DEFCORE=  1.000000000000000    
!SCORE=  0.000000000000000    
!CICLOS=  3.000000000000000    
!CIISTSYM=  1.000000000000000    
!CIISTMS2=  0.000000000000000    
!CIISTNEL=  8.000000000000000    
!NEWMOL= -1.000000000000000    
!NEWSYM= -1.000000000000000    
_SLFILES=slscratch
_NGSSTO=  9.000000000000000    
_SIN=SIN
_COS=COS
_TAN=TAN
_ACOS=ACOS
_ASIN=ASIN
_ATAN=ATAN
_COSH=COSH
_SINH=SINH
_TANH=TANH
_ABS=ABS
_MOD=MOD
_ERF=ERF
_REFC=REFC
_ERFC=ERFC
_HYPOT=HYPOT
_J0=J0
_J1=J1
_JN=JN
_GAMMA=GAMMA
_LGAMMA=LGAMMA
_Y0=Y0
_Y1=Y1
_YN=YN
_EXP=EXP
_LOG=LOG
_LOG10=LOG10
_SQRT=SQRT
_INT=INT
_NINT=NINT
_MAX=MAX
_MIN=MIN
_COSMO=  0.000000000000000    
_COSMOIT=  0.000000000000000    
_COSMOES=  0.000000000000000    
_COSMOEDS=  0.000000000000000    
_COSMOEC=  0.000000000000000    
_COSMOEDCORR=  0.000000000000000    
_FEPSI=  1.000000000000000    
_SL_IsMM=  0.000000000000000    
_SL_NSYM=  4.000000000000000    
_SL_System_BitSw=  0.000000000000000    
_SL_Unique_atoms=  0.000000000000000    
_SL_GRAD=  0.000000000000000    
_SL_MAXUPD_Hess=  5.000000000000000    
_SL_N_PRINT_COD=  5.000000000000000    
_SL_PRINT_CODES=  0.000000000000000    
_SL_BasType=  0.000000000000000    
_SL_Energy_Pred=  0.000000000000000    
_SL_New_Coords=  0.000000000000000    
_SL_Total_Nuclea=  0.000000000000000    
_SL_Highest_Mltp=  0.000000000000000    
_SL_Ref_Geom=  0.000000000000000    
_SL_Symmetry_ope=  3.000000000000000    
_SL_agrad=  0.000000000000000    
_SL_GrdMax=  0.000000000000000    
_SL_GrdNorm=  0.000000000000000    
_SL_GrdRMS=  0.000000000000000    
_SL_Hss_Q=  0.000000000000000    
_SL_Hss_X=  0.000000000000000    
_SL_BMxOld=  0.000000000000000    
_SL_KtB=  0.000000000000000    
_SL_TROld=  0.000000000000000    
_SL_No_of_Intern=  0.000000000000000    
_SL_Hess=  0.000000000000000    
_SL_K=  0.000000000000000    
!LATTICE= -1.000000000000000    
!NEWLATTICE=  0.000000000000000    
!LATGRAD_VAR=FALSE
!SEW_LATTICE=  1.000000000000000    
!AIC_ONEEL=  0.000000000000000    
!LOCAL=  0.000000000000000    
!SAVEDOM= -1.000000000000000    
!RESTDOM= -1.000000000000000    
!SAVEDOM_HF= -1.000000000000000    
!RESTDOM_HF= -1.000000000000000    
!HESSREC=  5300.200000000000    
!FREQREC=  5400.200000000000    
!NMODREC=  5450.200000000000    
!GTASKS=  0.000000000000000    
!HTASKS=  0.000000000000000    
!SAVEDOM_EOM= -1.000000000000000    
!RESTDOM_EOM= -1.000000000000000    
!GRADSTATE= -1.000000000000000    
!DEBUG=  0.000000000000000    
!CFIT_CPHF=  0.000000000000000    
!RDOMAUX_CPHF=  0.000000000000000    
!THRAO_CPHF= 0.1000000000000000E-11
!THRMO_CPHF= 0.1000000000000000E-11
!THROV_CPHF= 0.1000000000000000E-11
!THRSW_CPHF= 0.1000000000000000E-11
!THRPROD_CPHF= 0.1000000000000000E-11
!THRAOPR_CPHF= 0.1000000000000000E-11
!CFIT_SCFGRD=  0.000000000000000    
!RDOMAUX_SCFGRD=  0.000000000000000    
!THRAO_SCFGRD= 0.1000000000000000E-11
!THRMO_SCFGRD= 0.1000000000000000E-11
!THROV_SCFGRD= 0.1000000000000000E-11
!THRSW_SCFGRD= 0.1000000000000000E-11
!THRPROD_SCFGRD= 0.1000000000000000E-11
!THRAOPR_SCFGRD= 0.1000000000000000E-11
!LOCFIT_SCF=  0.000000000000000    
!LOCFIT_MP2=  0.000000000000000    
_RIDOM=  0.000000000000000    
!CC2_METHOD=  0.000000000000000    
_BASIS2006=FALSE
_SVDDEL= -1.000000000000000    
_SVDDELA= -1.000000000000000    
_SVDDELP= -1.000000000000000    
_SVDDELF= -1.000000000000000    
_SVDDELS= -1.000000000000000    
_SVDDEL_ABS= -1.000000000000000    
_SVDDELA_ABS= -1.000000000000000    
_SVDDELP_ABS= -1.000000000000000    
_SVDDELF_ABS= -1.000000000000000    
_SVDDELS_ABS= -1.000000000000000    
_MAXBASIS=  0.000000000000000    
!OPT_CONICAL=  0.000000000000000    
!CLEARSP_JGRID=  0.000000000000000    
_GRDHYBR=  0.000000000000000    
_STATEGRAD=  1.000000000000000    
_4EXT_NDISKS=  1.000000000000000    
!EMBEDFLAG=  1.000000000000000    
!EMBED=FALSE
!EMBED_F12=FALSE
!EMBEDNUC=  0.000000000000000    
_EMBEDENERGY=  0.000000000000000    
!EMBED_DFC=FALSE
!NUM_VOIDS=  0.000000000000000    
_IBODY=  0.000000000000000    
_EMBE_CORR=  0.000000000000000    
!EMBED_PROJ=FALSE
!EMB_PROJ_ZMU=  1000000.000000000    
!CORRECTION_HF=  0.000000000000000    
!EMBED_AORB=  0.000000000000000    
!EMBED_NACORR=  0.000000000000000    
!EMBED_MP2=FALSE
!EMBED_TRUNC_PERTURBATION=FALSE
!EMBED_FROZEN=  0.000000000000000    
!EMBED_ACTIVE=  0.000000000000000    
_CHANGE_BASIS=FALSE
_RESTORE_BASIS=FALSE
_FIX_EMBED_GUESS=FALSE
_EMBED_SCF=FALSE
_HUZINAGA_T=FALSE
_HUZINAGA_F=FALSE
_HUZINAGA=FALSE
_HUZINAGA_CORRECT=FALSE
!FASTLATGRAD=  1.000000000000000    
!FASTVLAMBDA= -1.000000000000000    
!IFORCE= -1.000000000000000    
!USESYM= -1.000000000000000    
_SINDEX=  0.000000000000000    
_AVDOM_OSV=  0.000000000000000    
_AVDOM_PNO=  0.000000000000000    
_AVDOM_PAO=  0.000000000000000    
_AVDOM_LMO=  0.000000000000000    
_CC2OSV_FLAG=  0.000000000000000    
_EOMCCSD_CONV=FALSE
_TMADC2_FLAG=FALSE
_PROPADC2_FLAG=FALSE
_LEN_VirQ=  0.000000000000000    
_GRDCC2LR_FLAG=FALSE
_GRDADC2_FLAG=FALSE
_RO_VGLOBAL=  0.000000000000000    
_OPT=FALSE
_FREQ=FALSE
_HESS=FALSE
_CMRCC_callName=EMPTY
_CMRCC_callCount=  0.000000000000000    
_GECCO_CIROOT=  1.000000000000000    
_SYM_CATION=  2.000000000000000    
_MON_A=FALSE
_MON_B=FALSE
GX1=  0.000000000000000    
GY1=  0.000000000000000    
GZ1=-0.6713892616133071E-01
GX2=  0.000000000000000    
GY2= 0.7466668332448386    
GZ2= 0.5327716029306330    
GX3=  0.000000000000000    
GY3=-0.7466668332448386    
GZ3= 0.5327716029306330    
OX1=  0.000000000000000    
OY1=  0.000000000000000    
OZ1=-0.1268741827463872    
HX2=  0.000000000000000    
HY2=  1.410995821174365    
HZ2=  1.006792416516765    
HX3=  0.000000000000000    
HY3= -1.410995821174365    
HZ3=  1.006792416516765    
[Atoms] Angs
O     1    8         0.0000000000        0.0000000000       -0.0671389262
H     2    1         0.0000000000        0.7466668332        0.5327716029
H     3    1         0.0000000000       -0.7466668332        0.5327716029
[GTO]
   1 0
 s    6  1.00
  0.8588500000D+04  0.1895150083D-02
  0.1297230000D+04  0.1438590063D-01
  0.2992960000D+03  0.7073200310D-01
  0.8737710000D+02  0.2400010105D+00
  0.2567890000D+02  0.5947970261D+00
  0.3740040000D+01  0.2808020123D+00
 s    3  1.00
  0.4211750000D+02  0.1138890124D+00
  0.9628370000D+01  0.9208111006D+00
  0.2853320000D+01 -0.3274470358D-02
 s    1  1.00
  0.9056610000D+00  0.1000000000D+01
 s    1  1.00
  0.2556110000D+00  0.1000000000D+01
 p    3  1.00
  0.4211750000D+02  0.3651139738D-01
  0.9628370000D+01  0.2371529830D+00
  0.2853320000D+01  0.8197019412D+00
 p    1  1.00
  0.9056610000D+00  0.1000000000D+01
 p    1  1.00
  0.2556110000D+00  0.1000000000D+01
 d    1  1.00
  0.1292000000D+01  0.1000000000D+01
  
   2 0
 s    3  1.00
  0.3386500000D+02  0.2549381454D-01
  0.5094790000D+01  0.1903731086D+00
  0.1158790000D+01  0.8521614860D+00
 s    1  1.00
  0.3258400000D+00  0.1000000000D+01
 s    1  1.00
  0.1027410000D+00  0.1000000000D+01
 p    1  1.00
  0.7500000000D+00  0.1000000000D+01
  
   3 0
 s    3  1.00
  0.3386500000D+02  0.2549381454D-01
  0.5094790000D+01  0.1903731086D+00
  0.1158790000D+01  0.8521614860D+00
 s    1  1.00
  0.3258400000D+00  0.1000000000D+01
 s    1  1.00
  0.1027410000D+00  0.1000000000D+01
 p    1  1.00
  0.7500000000D+00  0.1000000000D+01


[MO]
 Sym=      1.1
 Ene=     -20.5461
 Spin= Alpha
 Occup=    2.000000
1 0.55145077232382
2 0.47168806751803
3 0.005478208469940
4 -0.000472402120017
5 0.0
6 0.0
7 0.001803003722658
8 0.0
9 0.0
10 -0.000647172662985
11 0.0
12 0.0
13 0.000087512288046
14 0.000135318242793
15 -0.000113053142744
16 -0.000022265100049
17 0.0
18 0.0
19 0.0
20 0.000204556544929
21 0.000112774551864
22 0.000089980882168
23 0.0
24 -0.000084645803364
25 -0.000031656556858
26 0.000204556544929
27 0.000112774551864
28 0.000089980882168
29 0.0
30 0.000084645803364
31 -0.000031656556858
 Sym=      2.1
 Ene=      -1.3428
 Spin= Alpha
 Occup=    2.000000
1 -0.11340412221826
2 -0.18948605042002
3 0.53972461027167
4 0.37589040025599
5 0.0
6 0.0
7 0.037352225780443
8 0.0
9 0.0
10 0.062646230062323
11 0.0
12 0.0
13 0.020883674494065
14 -0.008022158710256
15 0.004742343102522
16 0.003279815607734
17 0.0
18 0.0
19 0.0
20 0.093898472576703
21 0.081227579229491
22 -0.002434577273090
23 0.0
24 -0.023446173873622
25 -0.015099484612832
26 0.093898472576703
27 0.081227579229491
28 -0.002434577273090
29 0.0
30 0.023446173873622
31 -0.015099484612832
 Sym=      1.3
 Ene=      -0.7022
 Spin= Alpha
 Occup=    2.000000
1 0.0
2 0.0
3 0.0
4 0.0
5 0.0
6 0.22681320919359
7 0.0
8 0.0
9 0.34854887609819
10 0.0
11 0.0
12 0.21836912808739
13 0.0
14 0.0
15 0.0
16 0.0
17 0.0
18 0.0
19 0.029055131261396
20 0.14829033240011
21 0.21343005171769
22 0.059307973980915
23 0.0
24 -0.018171536547591
25 -0.026744034327357
26 -0.14829033240011
27 -0.21343005171769
28 -0.059307973980915
29 0.0
30 -0.018171536547591
31 0.026744034327357
 Sym=      3.1
 Ene=      -0.5760
 Spin= Alpha
 Occup=    2.000000
1 0.038823591931060
2 0.065979891640043
3 -0.19943947000315
4 -0.34026730667646
5 0.0
6 0.0
7 0.25313314471063
8 0.0
9 0.0
10 0.37441831688213
11 0.0
12 0.0
13 0.33156743176051
14 -0.012741379850604
15 -0.004379057798843
16 0.017120437649447
17 0.0
18 0.0
19 0.0
20 0.089250635030881
21 0.15356585534145
22 0.028929858929414
23 0.0
24 -0.030840701194636
25 0.007656209671045
26 0.089250635030881
27 0.15356585534145
28 0.028929858929414
29 0.0
30 0.030840701194636
31 0.007656209671045
 Sym=      1.2
 Ene=      -0.5005
 Spin= Alpha
 Occup=    2.000000
1 0.0
2 0.0
3 0.0
4 0.0
5 0.29222659951563
6 0.0
7 0.0
8 0.43726140043495
9 0.0
10 0.0
11 0.46606309479551
12 0.0
13 0.0
14 0.0
15 0.0
16 0.0
17 0.0
18 0.017184253841185
19 0.0
20 0.0
21 0.0
22 0.0
23 0.031022762421401
24 0.0
25 0.0
26 0.0
27 0.0
28 0.0
29 0.031022762421401
30 0.0
31 0.0
 Sym=      4.1
 Ene=       0.1497
 Spin= Alpha
 Occup=    0.000000
1 0.033206801574026
2 0.054126987192663
3 -0.10255499024431
4 -0.83422148437510
5 0.0
6 0.0
7 -0.076042270135727
8 0.0
9 0.0
10 -0.11913196410850
11 0.0
12 0.0
13 -0.21039929181725
14 0.004918607814999
15 0.000075772123414
16 -0.004994379938413
17 0.0
18 0.0
19 0.0
20 0.035232721818125
21 -0.070614323614692
22 0.83763211871542
23 0.0
24 0.006216504092561
25 -0.002886343244937
26 0.035232721818125
27 -0.070614323614692
28 0.83763211871542
29 0.0
30 -0.006216504092561
31 -0.002886343244937
 Sym=      2.3
 Ene=       0.2172
 Spin= Alpha
 Occup=    0.000000
1 0.0
2 0.0
3 0.0
4 0.0
5 0.0
6 -0.12353374334427
7 0.0
8 0.0
9 -0.13254615597649
10 0.0
11 0.0
12 -0.50271695489861
13 0.0
14 0.0
15 0.0
16 0.0
17 0.0
18 0.0
19 -0.004762586031755
20 0.026876077318076
21 -0.12307250572334
22 1.57242571291871
23 0.0
24 0.008333478656324
25 0.008524805111816
26 -0.026876077318076
27 0.12307250572334
28 -1.57242571291871
29 0.0
30 0.008333478656324
31 -0.008524805111816
 Sym=      3.3
 Ene=       0.5627
 Spin= Alpha
 Occup=    0.000000
1 0.0
2 0.0
3 0.0
4 0.0
5 0.0
6 -0.12108674991967
7 0.0
8 0.0
9 -0.18242347273524
10 0.0
11 0.0
12 -1.07855295402364
13 0.0
14 0.0
15 0.0
16 0.0
17 0.0
18 0.0
19 0.014765609455887
20 0.084318982951582
21 1.42906902292453
22 -0.76114483732050
23 0.0
24 -0.020828200512891
25 0.003647326642235
26 -0.084318982951582
27 -1.42906902292453
28 0.76114483732050
29 0.0
30 -0.020828200512891
31 -0.003647326642235
 Sym=      5.1
 Ene=       0.6192
 Spin= Alpha
 Occup=    0.000000
1 0.033754146506556
2 0.059163360205771
3 -0.13695846229889
4 -1.37379149374746
5 0.0
6 0.0
7 -0.10420250763481
8 0.0
9 0.0
10 -0.19575003065520
11 0.0
12 0.0
13 -1.08060446658391
14 -0.002854695310679
15 0.013561537711228
16 -0.010706842400550
17 0.0
18 0.0
19 0.0
20 0.061920538575764
21 1.81860856614277
22 -0.62324653697444
23 0.0
24 -0.031567196300028
25 -0.037784862932725
26 0.061920538575764
27 1.81860856614277
28 -0.62324653697444
29 0.0
30 0.031567196300028
31 -0.037784862932725
 Sym=      6.1
 Ene=       0.9991
 Spin= Alpha
 Occup=    0.000000
1 -0.015201175478194
2 -0.028316570209674
3 0.061479965394199
4 0.94551100885165
5 0.0
6 0.0
7 -0.23282296093542
8 0.0
9 0.0
10 -0.73303804337269
11 0.0
12 0.0
13 1.60309177217399
14 -0.011980332884433
15 0.015054390077758
16 -0.003074057193325
17 0.0
18 0.0
19 0.0
20 -0.032982927955885
21 -0.61340166700966
22 -0.097859987431343
23 0.0
24 0.14879652810664
25 0.11077136299182
26 -0.032982927955885
27 -0.61340166700966
28 -0.097859987431343
29 0.0
30 -0.14879652810664
31 0.11077136299182
 Sym=      2.2
 Ene=       1.0032
 Spin= Alpha
 Occup=    0.000000
1 0.0
2 0.0
3 0.0
4 0.0
5 -0.23997584535629
6 0.0
7 0.0
8 -0.83673140196720
9 0.0
10 0.0
11 1.15077071021402
12 0.0
13 0.0
14 0.0
15 0.0
16 0.0
17 0.0
18 -0.008231465406603
19 0.0
20 0.0
21 0.0
22 0.0
23 -0.019931187471489
24 0.0
25 0.0
26 0.0
27 0.0
28 0.0
29 -0.019931187471489
30 0.0
31 0.0
 Sym=      4.3
 Ene=       1.1105
 Spin= Alpha
 Occup=    0.000000
1 0.0
2 0.0
3 0.0
4 0.0
5 0.0
6 -0.24015428084053
7 0.0
8 0.0
9 -0.71750857694203
10 0.0
11 0.0
12 1.77951560936787
13 0.0
14 0.0
15 0.0
16 0.0
17 0.0
18 0.0
19 0.030046041946065
20 -0.014009224381812
21 -0.33709465366792
22 -0.78362836801101
23 0.0
24 0.16596814420136
25 0.14814912867790
26 0.014009224381812
27 0.33709465366792
28 0.78362836801101
29 0.0
30 0.16596814420136
31 -0.14814912867790
 Sym=      7.1
 Ene=       1.3157
 Spin= Alpha
 Occup=    0.000000
1 0.099263022384575
2 0.20427402262508
3 -1.50243181477430
4 3.12930416806975
5 0.0
6 0.0
7 -0.029303469541237
8 0.0
9 0.0
10 0.15760893731417
11 0.0
12 0.0
13 0.62014610170664
14 -0.029373887546976
15 -0.004453032025963
16 0.033826919572939
17 0.0
18 0.0
19 0.0
20 0.012926828704740
21 -0.88438989146386
22 -0.33522674177696
23 0.0
24 0.14802284988574
25 0.37743955793271
26 0.012926828704740
27 -0.88438989146386
28 -0.33522674177696
29 0.0
30 -0.14802284988574
31 0.37743955793271
 Sym=      8.1
 Ene=       1.4571
 Spin= Alpha
 Occup=    0.000000
1 -0.035161401673395
2 -0.073122174247002
3 0.61879704142663
4 -2.04725273145037
5 0.0
6 0.0
7 -0.011595803673564
8 0.0
9 0.0
10 -0.10927064977883
11 0.0
12 0.0
13 -1.23989264720895
14 -0.003285272314235
15 -0.10621891552873
16 0.10950418784296
17 0.0
18 0.0
19 0.0
20 -0.081258982437298
21 1.16675279826293
22 -0.017712121088779
23 0.0
24 -0.60901095479642
25 0.38828933194671
26 -0.081258982437298
27 1.16675279826293
28 -0.017712121088779
29 0.0
30 0.60901095479642
31 0.38828933194671
 Sym=      1.4
 Ene=       1.5219
 Spin= Alpha
 Occup=    0.000000
1 0.0
2 0.0
3 0.0
4 0.0
5 0.0
6 0.0
7 0.0
8 0.0
9 0.0
10 0.0
11 0.0
12 0.0
13 0.0
14 0.0
15 0.0
16 0.0
17 0.12487347770924
18 0.0
19 0.0
20 0.0
21 0.0
22 0.0
23 0.69071927198390
24 0.0
25 0.0
26 0.0
27 0.0
28 0.0
29 -0.69071927198390
30 0.0
31 0.0
 Sym=      3.2
 Ene=       1.7051
 Spin= Alpha
 Occup=    0.000000
1 0.0
2 0.0
3 0.0
4 0.0
5 -0.049042186285825
6 0.0
7 0.0
8 -0.051976274652679
9 0.0
10 0.0
11 -0.55409499832379
12 0.0
13 0.0
14 0.0
15 0.0
16 0.0
17 0.0
18 0.14643548187754
19 0.0
20 0.0
21 0.0
22 0.0
23 0.76497887671032
24 0.0
25 0.0
26 0.0
27 0.0
28 0.0
29 0.76497887671032
30 0.0
31 0.0
 Sym=      5.3
 Ene=       1.9368
 Spin= Alpha
 Occup=    0.000000
1 0.0
2 0.0
3 0.0
4 0.0
5 0.0
6 0.010391989981689
7 0.0
8 0.0
9 0.008458802600507
10 0.0
11 0.0
12 -0.88083438283141
13 0.0
14 0.0
15 0.0
16 0.0
17 0.0
18 0.0
19 -0.074704303706836
20 -0.19267272267447
21 0.73882663175908
22 -0.16478615172147
23 0.0
24 0.48495286828510
25 -0.65185218799217
26 0.19267272267447
27 -0.73882663175908
28 0.16478615172147
29 0.0
30 0.48495286828510
31 0.65185218799217
 Sym=      6.3
 Ene=       2.2379
 Spin= Alpha
 Occup=    0.000000
1 0.0
2 0.0
3 0.0
4 0.0
5 0.0
6 0.16984363082279
7 0.0
8 0.0
9 0.48141136537004
10 0.0
11 0.0
12 -0.002928656508284
13 0.0
14 0.0
15 0.0
16 0.0
17 0.0
18 0.0
19 -0.23349568324497
20 -0.67388584118514
21 0.67310380212599
22 -0.53510754035061
23 0.0
24 0.29430854182786
25 0.48681466844674
26 0.67388584118514
27 -0.67310380212599
28 0.53510754035061
29 0.0
30 0.29430854182786
31 -0.48681466844674
 Sym=      9.1
 Ene=       2.3929
 Spin= Alpha
 Occup=    0.000000
1 0.030232596871926
2 0.056615180861609
3 -0.24384901793063
4 0.12904698840856
5 0.0
6 0.0
7 -0.16756760273868
8 0.0
9 0.0
10 -0.24695667173917
11 0.0
12 0.0
13 0.23279888232565
14 -0.28419271306810
15 0.19364517415191
16 0.090547538916184
17 0.0
18 0.0
19 0.0
20 0.88495548712560
21 -1.08488960509601
22 0.41092875757814
23 0.0
24 -0.29227717690568
25 -0.14492496001386
26 0.88495548712560
27 -1.08488960509601
28 0.41092875757814
29 0.0
30 0.29227717690568
31 -0.14492496001386
 Sym=     10.1
 Ene=       2.5944
 Spin= Alpha
 Occup=    0.000000
1 -0.055345788302338
2 -0.12925888713824
3 0.90097376060273
4 1.78241153556611
5 0.0
6 0.0
7 0.022172427635834
8 0.0
9 0.0
10 0.68765647802794
11 0.0
12 0.0
13 0.75581702941455
14 0.012912850860533
15 -0.001265482999473
16 -0.011647367861060
17 0.0
18 0.0
19 0.0
20 0.56143860268396
21 -1.98362971418978
22 0.26691705003512
23 0.0
24 0.87781203174993
25 0.68443401454442
26 0.56143860268396
27 -1.98362971418978
28 0.26691705003512
29 0.0
30 -0.87781203174993
31 0.68443401454442
 Sym=      7.3
 Ene=       2.7871
 Spin= Alpha
 Occup=    0.000000
1 0.0
2 0.0
3 0.0
4 0.0
5 0.0
6 -0.011731826695562
7 0.0
8 0.0
9 -0.87792117722775
10 0.0
11 0.0
12 -0.64864377382954
13 0.0
14 0.0
15 0.0
16 0.0
17 0.0
18 0.0
19 -0.23138110351805
20 -0.79209067041730
21 2.08062886350153
22 -0.52953892569733
23 0.0
24 -0.89863260571861
25 -0.63280856729794
26 0.79209067041730
27 -2.08062886350153
28 0.52953892569733
29 0.0
30 -0.89863260571861
31 0.63280856729794
 Sym=      4.2
 Ene=       3.5053
 Spin= Alpha
 Occup=    0.000000
1 0.0
2 0.0
3 0.0
4 0.0
5 0.019679121283886
6 0.0
7 0.0
8 -0.014394644884393
9 0.0
10 0.0
11 0.26964910143826
12 0.0
13 0.0
14 0.0
15 0.0
16 0.0
17 0.0
18 1.03603769396303
19 0.0
20 0.0
21 0.0
22 0.0
23 -0.36098850831725
24 0.0
25 0.0
26 0.0
27 0.0
28 0.0
29 -0.36098850831725
30 0.0
31 0.0
 Sym=      2.4
 Ene=       3.5434
 Spin= Alpha
 Occup=    0.000000
1 0.0
2 0.0
3 0.0
4 0.0
5 0.0
6 0.0
7 0.0
8 0.0
9 0.0
10 0.0
11 0.0
12 0.0
13 0.0
14 0.0
15 0.0
16 0.0
17 1.05184185335827
18 0.0
19 0.0
20 0.0
21 0.0
22 0.0
23 -0.33720511150364
24 0.0
25 0.0
26 0.0
27 0.0
28 0.0
29 0.33720511150364
30 0.0
31 0.0
 Sym=     11.1
 Ene=       3.7216
 Spin= Alpha
 Occup=    0.000000
1 0.000599817504006
2 0.001720317261056
3 -0.068319219919188
4 0.59022305898638
5 0.0
6 0.0
7 0.031252480429759
8 0.0
9 0.0
10 0.011092828084391
11 0.0
12 0.0
13 0.55189907201460
14 -0.34126004536273
15 -0.72238355356382
16 1.06364359892655
17 0.0
18 0.0
19 0.0
20 -0.016822401741768
21 -0.39522965088364
22 0.025345283322557
23 0.0
24 0.34464489398050
25 -0.26621438303947
26 -0.016822401741768
27 -0.39522965088364
28 0.025345283322557
29 0.0
30 -0.34464489398050
31 -0.26621438303947
 Sym=     12.1
 Ene=       3.9977
 Spin= Alpha
 Occup=    0.000000
1 0.022093828243652
2 0.043859237752920
3 -0.11614219128567
4 -2.05382563053818
5 0.0
6 0.0
7 -0.30835226407050
8 0.0
9 0.0
10 -0.12916284236605
11 0.0
12 0.0
13 -0.99289336835065
14 1.05293720544215
15 -0.84960126407717
16 -0.20333594136498
17 0.0
18 0.0
19 0.0
20 0.31486311766040
21 1.09498024756740
22 0.045369598645759
23 0.0
24 -0.57457004448589
25 -0.46473614479473
26 0.31486311766040
27 1.09498024756740
28 0.045369598645759
29 0.0
30 0.57457004448589
31 -0.46473614479473
 Sym=      8.3
 Ene=       4.2739
 Spin= Alpha
 Occup=    0.000000
1 0.0
2 0.0
3 0.0
4 0.0
5 0.0
6 0.45200430365439
7 0.0
8 0.0
9 -0.036547103213256
10 0.0
11 0.0
12 0.91345794434924
13 0.0
14 0.0
15 0.0
16 0.0
17 0.0
18 0.0
19 1.15666724175417
20 -0.40658619417015
21 -0.50185885751314
22 -0.23065400552312
23 0.0
24 0.46069818084214
25 0.37015733883289
26 0.40658619417015
27 0.50185885751314
28 0.23065400552312
29 0.0
30 0.46069818084214
31 -0.37015733883289
 Sym=      5.2
 Ene=       5.3258
 Spin= Alpha
 Occup=    0.000000
1 0.0
2 0.0
3 0.0
4 0.0
5 1.27045542791175
6 0.0
7 0.0
8 -1.37388432131740
9 0.0
10 0.0
11 0.48141278391417
12 0.0
13 0.0
14 0.0
15 0.0
16 0.0
17 0.0
18 -0.028436600250143
19 0.0
20 0.0
21 0.0
22 0.0
23 0.058554905065491
24 0.0
25 0.0
26 0.0
27 0.0
28 0.0
29 0.058554905065491
30 0.0
31 0.0
 Sym=     13.1
 Ene=       5.7626
 Spin= Alpha
 Occup=    0.000000
1 0.022553320910463
2 0.042290148033450
3 -0.22394743207263
4 -1.01314545214907
5 0.0
6 0.0
7 1.26280461464221
8 0.0
9 0.0
10 -1.72447587476073
11 0.0
12 0.0
13 0.085016530224433
14 0.36445577902959
15 -0.24936861522923
16 -0.11508716380036
17 0.0
18 0.0
19 0.0
20 0.28800585037247
21 0.49221152579142
22 0.013580690807309
23 0.0
24 -0.46163184787051
25 -0.28010398536662
26 0.28800585037247
27 0.49221152579142
28 0.013580690807309
29 0.0
30 0.46163184787051
31 -0.28010398536662
 Sym=      9.3
 Ene=       6.1762
 Spin= Alpha
 Occup=    0.000000
1 0.0
2 0.0
3 0.0
4 0.0
5 0.0
6 -1.25407292092895
7 0.0
8 0.0
9 1.98366999715895
10 0.0
11 0.0
12 -0.15987091077642
13 0.0
14 0.0
15 0.0
16 0.0
17 0.0
18 0.0
19 0.65189232990607
20 -0.34401616898409
21 -0.48889709740602
22 0.15226829134504
23 0.0
24 0.50867021421142
25 0.46661232567843
26 0.34401616898409
27 0.48889709740602
28 -0.15226829134504
29 0.0
30 0.50867021421142
31 -0.46661232567843
 Sym=     14.1
 Ene=      51.5492
 Spin= Alpha
 Occup=    0.000000
1 -2.24715114992342
2 2.33604597945698
3 -0.26619001577876
4 0.074928829135482
5 0.0
6 0.0
7 0.018432582386808
8 0.0
9 0.0
10 -0.071461788450618
11 0.0
12 0.0
13 -0.009099709863408
14 0.022937574377990
15 -0.018734444575549
16 -0.004203129802440
17 0.0
18 0.0
19 0.0
20 0.005487495849025
21 0.064923372321290
22 -0.030394749122174
23 0.0
24 -0.057244814896964
25 -0.045607351875848
26 0.005487495849025
27 0.064923372321290
28 -0.030394749122174
29 0.0
30 0.057244814896964
31 -0.045607351875848
 [FREQ]
      0.00
      0.00
      0.00
      0.00
      0.00
      0.00
   1667.26
   3904.75
   4012.53
 [FR-COORD]
O          0.0000000000        0.0000000000       -0.1268741827
H          0.0000000000        1.4109958212        1.0067924165
H          0.0000000000       -1.4109958212        1.0067924165
 [FR-NORM-COORD]
 Vibration                    1
         -0.00000000          0.15421005         -0.08485537
          0.37795652          0.27559597         -0.23593596
         -0.38175017          0.27559597          0.06622523
 Vibration                    2
          0.00000000         -0.00772669         -0.01524789
          0.66661419          0.02281378         -0.05325949
          0.73404915          0.02281378          0.02276371
 Vibration                    3
          0.25003978          0.00000000          0.00000000
         -0.00000000         -0.00000000          0.00000000
         -0.00000000         -0.00000000         -0.00000000
 Vibration                    4
         -0.00000000          0.07589606          0.13995655
          0.39885833         -0.20554912          0.49025175
         -0.24852762         -0.20554912         -0.21033866
 Vibration                    5
         -0.00000000          0.14963472         -0.06543243
         -0.41989399         -0.09724440          0.24184081
          0.41989546         -0.09724440         -0.37270568
 Vibration                    6
          0.00000000          0.07798316          0.15563037
         -0.26383938          0.29646313         -0.11629642
          0.26381096          0.29646313          0.42755716
 Vibration                    7
         -0.00000000          0.00000000         -0.06720159
         -0.00000000         -0.41941113          0.53326885
          0.00000000          0.41941113          0.53326885
 Vibration                    8