[Molden Format]
[Molpro variables]
_NUMVAR=  1037.000000000000    
_AVOGAD= 0.6022140760000000E+24
_BOLTZ= 0.1380649000000000E-22
_CLIGHTSI=  299792458.0000000    
_JOULE= 0.4359744722207100E-17
_JPCAL=  4.184000000000000    
_PLANCK= 0.6626070150000000E-33
_BOHR= 0.5291772109030000E-10
_ECHARG= 0.1602176634000000E-18
_ENULL= 0.8854187812800001E-11
_MU= 0.1660539066600000E-26
_EMASS= 0.9109383701500001E-30
_AMU2AU=  1822.888486217313    
_CLIGHT=  29979245800.00000    
_EV= 0.3674932217565494E-01
_KJOULE= 0.3808798847133432E-03
_KJOULE/MOL= 0.3808798847133432E-03
_CM= 0.4556335252912009E-05
_CM-1= 0.4556335252912009E-05
_DEB2SI= 0.3335640951981520E-29
_KCAL= 0.1593601437640628E-02
_KCAL/MOL= 0.1593601437640628E-02
_KELVIN= 0.3166811563455608E-05
_HERTZ= 0.1519829846057038E-15
_HZ= 0.1519829846057038E-15
_TOA= 0.5291772109030000    
_TOANG= 0.5291772109030000    
_TORAD= 0.1745329251994330E-01
_TOCM=  219474.6313631965    
_TODEBYE=  2.541746473194078    
_TOE= 0.4803204712570263E-09
_TOEV=  27.21138624598803    
_TOHERTZ=  6579683920501656.    
_TOHZ=  6579683920501656.    
_TOK=  315775.0248040668    
_TOKCAL=  627.5094740630558    
_TOKELVIN=  315775.0248040668    
_TOKJ=  2625.499639479825    
_TOKJOULE=  2625.499639479825    
_TOKG= 0.1660539066600000E-26
_ANG=  1.889726124625770    
_ANGSTROM=  1.889726124625770    
_RPAREF=  0.000000000000000    
_RPADISS=  0.000000000000000    
_IGNORE_UNDEF=  2.000000000000000    
_STRICTCHECK=  0.000000000000000    
!SEWARD=  0.000000000000000    
!MULTI=  0.000000000000000    
!DFMULTI=  0.000000000000000    
_SEW_ONEEL=  0.000000000000000    
_CPPDONE=FALSE
_DKROLL_DONE=  0.000000000000000    
_FNUC_DONE=  0.000000000000000    
_FOCKDONE=TRUE
_GRADONE=FALSE
_HESSDONE=TRUE
_INTDONE=TRUE
_SCFDONE=TRUE
_MODUL_BLOCK=FALSE
_MODUL_CUDA=FALSE
_MODUL_SLATER=FALSE
_MODUL_MRCC=FALSE
_MODUL_NBO6=FALSE
_MODUL_NECI=FALSE
_MODUL_AIMS=TRUE
_MODUL_GECCO=FALSE
_ISWINDOWS=FALSE
_MRCC_EXEC=
_FITC_AO_SAVED=FALSE
_FITC_MO_SAVED=FALSE
_SHARED_FS=TRUE
_LSTYP=SEWARD
_INTYP=INTS
_GEOMTYP=ZMAT
_GRADTYP=ALASKA
_DIRECT=FALSE
_DKHO= -1.000000000000000    
_FNUC=  0.000000000000000    
_SYNCM=  0.000000000000000    
_BASIS=6-311G(D,P)
_ZCENTRE=MASS
_ZORIENT=  1.000000000000000    
_NELEC=  16.00000000000000    
!SPIN=  0.000000000000000    
_OPTCONV= 0.1766543626567973E-03
_QSDSTEP=  0.000000000000000    
_QSDIRC=  0.000000000000000    
_PROGRAM=FREQ
_CPUSTEP=  27.28000000000000    
_SYSSTEP= 0.2400000000000001    
_WALLSTEP=  10.64000000000000    
!DFSCF=  0.000000000000000    
!SCSGRD=  0.000000000000000    
_CPUTOT=  35.68000000000000    
_DFTEXFAC=  1.000000000000000    
_DMX=  0.000000000000000    
_DMY=-0.2808362974044932E-06
_DMZ= -1.043050587349847    
_DMX_SCF=  0.000000000000000    
_DMY_SCF=-0.2808362974044932E-06
_DMZ_SCF= -1.043050587349847    
_FREQUENCIES= 0.2901123806163788E-04
_HOMO=  7.100000000000000    
_EHOMO=-0.4357942646570192    
_LUMO=  2.200000000000000    
_ELUMO= 0.1373525975283157    
_ENERGY= -113.8991540412587    
_ENERGY_METHOD=HF
_ENERGY_BASIS=6-311G(D,P)
_GEOMETRY_METHOD=HF
_GEOMETRY_BASIS=6-311G(D,P)
_ENUC=  31.89094483153905    
_GRADENERG= -113.8991540372217    
_GRADEXFAC=  9999.000000000000    
_GRADMETHOD=  1.000000000000000    
_NMRMETHOD=  0.000000000000000    
_NMRMAGNET=  0.000000000000000    
_VIRIAL=-0.1202927305811056E-03
!GRID_FREEZE= -1.000000000000000    
!NEESE_INDEX=  0.000000000000000    
_ITERATIONS=  8.000000000000000    
_LASTNELEC=  16.00000000000000    
_LASTSPIN=  0.000000000000000    
_LASTSYM=  1.000000000000000    
_MPP_PROG=  1.000000000000000    
_MSNSTATES=  0.000000000000000    
_RS2PHASE=  0.000000000000000    
_IPROC_MPP=  0.000000000000000    
_IPROC_MPPX=  0.000000000000000    
_NPROC_MPP=  6.000000000000000    
_NPROC_MPPX=  6.000000000000000    
_NPROC_SMP=  8.000000000000000    
_NUMSTEP=  0.000000000000000    
_OPTCONVMX= 0.1539526717041495E-03
_OPTCONVRMS= 0.8832718132844779E-04
_OPTGRAD= 0.5147249309842471E-04
_OPTGRADMX= 0.3787094358156359E-04
_OPTGRADRMS= 0.8578748849737452E-05
_OPTSTEP=  5.000000000000000    
_ORBITAL=  2100.200000000000    
_PI=  3.141592653589793    
_SEIG_MIN= 0.1264087971098684E-01
_SEWPROP=TRUE
_STATUS=  1.000000000000000    
_SYSTOT=  1.010000000000000    
_VERSION=  2022002.000000000    
_WALLTOT=  16.04000000000000    
_ZPE= 0.2876336808040043E-01
_DATE=25-Aug-25
_LASTORB=0
_OUTPUT=/home/zwa/Overlap_Integral_Project/overlap_integral_gaussian/molpro_files/formaldehyde/formaldehyde.out
_PGROUP=Cs
_TIME=11:25:32
_LIBMOL=/usr/local/molpro/molpro_2022.2.3_sockets/lib/
_VIGRDC=  0.000000000000000    
!VIBCNT=  0.000000000000000    
!RGHFCNT=  0.000000000000000    
!SURFREC=  0.000000000000000    
!XSURFREC=  0.000000000000000    
!XPOLYREC=  0.000000000000000    
!ROTREC=  0.000000000000000    
!POLYREC=  0.000000000000000    
!DIPREC=  0.000000000000000    
!DIP4DREC=  0.000000000000000    
!DIPROT=  0.000000000000000    
!DIP4DROT=  0.000000000000000    
!PTREC=  0.000000000000000    
!PT4DREC=  0.000000000000000    
!VSCFREC=  0.000000000000000    
!VCIREC=  0.000000000000000    
!PVCIREC=  0.000000000000000    
!VMP2REC=  0.000000000000000    
!VMCSCFREC=  0.000000000000000    
!VMRCIREC=  0.000000000000000    
!VIBSTATEREC=  0.000000000000000    
!VIBSTATECNT=  0.000000000000000    
!VIBINFO=  0.000000000000000    
!GAREC=  0.000000000000000    
!SCFORB=  21002.00000000000    
!DEFCORE=  2.000000000000000    
!SCORE=  0.000000000000000    
!NEWMOL=  0.000000000000000    
!NEWSYM=  0.000000000000000    
_SLFILES=slscratch
_NGSSTO=  9.000000000000000    
_SIN=SIN
_COS=COS
_TAN=TAN
_ACOS=ACOS
_ASIN=ASIN
_ATAN=ATAN
_COSH=COSH
_SINH=SINH
_TANH=TANH
_ABS=ABS
_MOD=MOD
_ERF=ERF
_REFC=REFC
_ERFC=ERFC
_HYPOT=HYPOT
_J0=J0
_J1=J1
_JN=JN
_GAMMA=GAMMA
_LGAMMA=LGAMMA
_Y0=Y0
_Y1=Y1
_YN=YN
_EXP=EXP
_LOG=LOG
_LOG10=LOG10
_SQRT=SQRT
_INT=INT
_NINT=NINT
_MAX=MAX
_MIN=MIN
_COSMO=  0.000000000000000    
_COSMOIT=  0.000000000000000    
_COSMOES=  0.000000000000000    
_COSMOEDS=  0.000000000000000    
_COSMOEC=  0.000000000000000    
_COSMOEDCORR=  0.000000000000000    
_FEPSI=  1.000000000000000    
_SL_IsMM=  0.000000000000000    
_SL_NSYM=  2.000000000000000    
_SL_System_BitSw=  0.000000000000000    
_SL_Unique_atoms=  0.000000000000000    
_SL_GRAD=  0.000000000000000    
_SL_MAXUPD_Hess=  5.000000000000000    
_SL_N_PRINT_COD=  5.000000000000000    
_SL_PRINT_CODES=  0.000000000000000    
_SL_BasType=  0.000000000000000    
_SL_Energy_Pred=  0.000000000000000    
_SL_New_Coords=  0.000000000000000    
_SL_Total_Nuclea=  0.000000000000000    
_SL_Highest_Mltp=  0.000000000000000    
_SL_Ref_Geom=  0.000000000000000    
_SL_Symmetry_ope=  1.000000000000000    
_SL_agrad=  0.000000000000000    
_SL_GrdMax=  0.000000000000000    
_SL_GrdNorm=  0.000000000000000    
_SL_GrdRMS=  0.000000000000000    
_SL_Hss_Q=  0.000000000000000    
_SL_Hss_X=  0.000000000000000    
_SL_BMxOld=  0.000000000000000    
_SL_KtB=  0.000000000000000    
_SL_TROld=  0.000000000000000    
_SL_No_of_Intern=  0.000000000000000    
_SL_Hess=  0.000000000000000    
_SL_K=  0.000000000000000    
!LATTICE= -1.000000000000000    
!NEWLATTICE=  0.000000000000000    
!LATGRAD_VAR=FALSE
!SEW_LATTICE=  1.000000000000000    
!AIC_ONEEL=  0.000000000000000    
!LOCAL=  0.000000000000000    
!SAVEDOM= -1.000000000000000    
!RESTDOM= -1.000000000000000    
!SAVEDOM_HF= -1.000000000000000    
!RESTDOM_HF= -1.000000000000000    
!HESSREC=  5300.200000000000    
!FREQREC=  5400.200000000000    
!NMODREC=  5450.200000000000    
!GTASKS=  0.000000000000000    
!HTASKS=  0.000000000000000    
!SAVEDOM_EOM= -1.000000000000000    
!RESTDOM_EOM= -1.000000000000000    
!GRADSTATE= -1.000000000000000    
!DEBUG=  0.000000000000000    
!CFIT_CPHF=  0.000000000000000    
!RDOMAUX_CPHF=  0.000000000000000    
!THRAO_CPHF= 0.1000000000000000E-11
!THRMO_CPHF= 0.1000000000000000E-11
!THROV_CPHF= 0.1000000000000000E-11
!THRSW_CPHF= 0.1000000000000000E-11
!THRPROD_CPHF= 0.1000000000000000E-11
!THRAOPR_CPHF= 0.1000000000000000E-11
!CFIT_SCFGRD=  0.000000000000000    
!RDOMAUX_SCFGRD=  0.000000000000000    
!THRAO_SCFGRD= 0.1000000000000000E-11
!THRMO_SCFGRD= 0.1000000000000000E-11
!THROV_SCFGRD= 0.1000000000000000E-11
!THRSW_SCFGRD= 0.1000000000000000E-11
!THRPROD_SCFGRD= 0.1000000000000000E-11
!THRAOPR_SCFGRD= 0.1000000000000000E-11
!LOCFIT_SCF=  0.000000000000000    
!LOCFIT_MP2=  0.000000000000000    
_RIDOM=  0.000000000000000    
!CC2_METHOD=  0.000000000000000    
_BASIS2006=FALSE
_SVDDEL= -1.000000000000000    
_SVDDELA= -1.000000000000000    
_SVDDELP= -1.000000000000000    
_SVDDELF= -1.000000000000000    
_SVDDELS= -1.000000000000000    
_SVDDEL_ABS= -1.000000000000000    
_SVDDELA_ABS= -1.000000000000000    
_SVDDELP_ABS= -1.000000000000000    
_SVDDELF_ABS= -1.000000000000000    
_SVDDELS_ABS= -1.000000000000000    
_MAXBASIS=  0.000000000000000    
!OPT_CONICAL=  0.000000000000000    
!CLEARSP_JGRID=  0.000000000000000    
_GRDHYBR=  0.000000000000000    
_STATEGRAD=  1.000000000000000    
_4EXT_NDISKS=  1.000000000000000    
!EMBEDFLAG=  1.000000000000000    
!EMBED=FALSE
!EMBED_F12=FALSE
!EMBEDNUC=  0.000000000000000    
_EMBEDENERGY=  0.000000000000000    
!EMBED_DFC=FALSE
!NUM_VOIDS=  0.000000000000000    
_IBODY=  0.000000000000000    
_EMBE_CORR=  0.000000000000000    
!EMBED_PROJ=FALSE
!EMB_PROJ_ZMU=  1000000.000000000    
!CORRECTION_HF=  0.000000000000000    
!EMBED_AORB=  0.000000000000000    
!EMBED_NACORR=  0.000000000000000    
!EMBED_MP2=FALSE
!EMBED_TRUNC_PERTURBATION=FALSE
!EMBED_FROZEN=  0.000000000000000    
!EMBED_ACTIVE=  0.000000000000000    
_CHANGE_BASIS=FALSE
_RESTORE_BASIS=FALSE
_FIX_EMBED_GUESS=FALSE
_EMBED_SCF=FALSE
_HUZINAGA_T=FALSE
_HUZINAGA_F=FALSE
_HUZINAGA=FALSE
_HUZINAGA_CORRECT=FALSE
!FASTLATGRAD=  1.000000000000000    
!FASTVLAMBDA= -1.000000000000000    
!IFORCE= -1.000000000000000    
!USESYM= -1.000000000000000    
_SINDEX=  0.000000000000000    
_AVDOM_OSV=  0.000000000000000    
_AVDOM_PNO=  0.000000000000000    
_AVDOM_PAO=  0.000000000000000    
_AVDOM_LMO=  0.000000000000000    
_CC2OSV_FLAG=  0.000000000000000    
_EOMCCSD_CONV=FALSE
_TMADC2_FLAG=FALSE
_PROPADC2_FLAG=FALSE
_LEN_VirQ=  0.000000000000000    
_GRDCC2LR_FLAG=FALSE
_GRDADC2_FLAG=FALSE
_RO_VGLOBAL=  0.000000000000000    
_OPT=FALSE
_FREQ=FALSE
_HESS=FALSE
_CMRCC_callName=EMPTY
_CMRCC_callCount=  0.000000000000000    
_GECCO_CIROOT=  1.000000000000000    
_SYM_CATION=  1.000000000000000    
_MON_A=FALSE
_MON_B=FALSE
GX1=  0.000000000000000    
GY1=-0.3883397783221639E-07
GZ1=-0.5891259284735345    
GX2=  0.000000000000000    
GY2= 0.9275177759173904    
GZ2= -1.170824086815621    
GX3=  0.000000000000000    
GY3=-0.9275159180264608    
GZ3= -1.170827025361717    
GX4=  0.000000000000000    
GY4=-0.8792929701170122E-07
GZ4= 0.5895303989714565    
CX1=  0.000000000000000    
CY1=-0.7338558243267127E-07
CZ1= -1.113286657730851    
HX2=  0.000000000000000    
HY2=  1.752754572205884    
HZ2= -2.212536864196590    
HX3=  0.000000000000000    
HY3= -1.752751061300857    
HZ3= -2.212542417243916    
OX4=  0.000000000000000    
OY4=-0.1661622896829844E-06
OZ4=  1.114050996197415    
[Atoms] Angs
C     1    6         0.0000000000       -0.0000000388       -0.5891259285
H     2    1         0.0000000000        0.9275177759       -1.1708240868
H     3    1         0.0000000000       -0.9275159180       -1.1708270254
O     4    8         0.0000000000       -0.0000000879        0.5895303990
[GTO]
   1 0
 s    6  1.00
  0.4563240000D+04  0.1966650249D-02
  0.6820240000D+03  0.1523060193D-01
  0.1549730000D+03  0.7612690966D-01
  0.4445530000D+02  0.2608010331D+00
  0.1302900000D+02  0.6164620782D+00
  0.1827730000D+01  0.2210060280D+00
 s    3  1.00
  0.2096420000D+02  0.1146600807D+00
  0.4803310000D+01  0.9199996477D+00
  0.1459330000D+01 -0.3030682134D-02
 s    1  1.00
  0.4834560000D+00  0.1000000000D+01
 s    1  1.00
  0.1455850000D+00  0.1000000000D+01
 p    3  1.00
  0.2096420000D+02  0.4024869267D-01
  0.4803310000D+01  0.2375939567D+00
  0.1459330000D+01  0.8158538515D+00
 p    1  1.00
  0.4834560000D+00  0.1000000000D+01
 p    1  1.00
  0.1455850000D+00  0.1000000000D+01
 d    1  1.00
  0.6260000000D+00  0.1000000000D+01
  
   2 0
 s    3  1.00
  0.3386500000D+02  0.2549381454D-01
  0.5094790000D+01  0.1903731086D+00
  0.1158790000D+01  0.8521614860D+00
 s    1  1.00
  0.3258400000D+00  0.1000000000D+01
 s    1  1.00
  0.1027410000D+00  0.1000000000D+01
 p    1  1.00
  0.7500000000D+00  0.1000000000D+01
  
   3 0
 s    3  1.00
  0.3386500000D+02  0.2549381454D-01
  0.5094790000D+01  0.1903731086D+00
  0.1158790000D+01  0.8521614860D+00
 s    1  1.00
  0.3258400000D+00  0.1000000000D+01
 s    1  1.00
  0.1027410000D+00  0.1000000000D+01
 p    1  1.00
  0.7500000000D+00  0.1000000000D+01
  
   4 0
 s    6  1.00
  0.8588500000D+04  0.1895150083D-02
  0.1297230000D+04  0.1438590063D-01
  0.2992960000D+03  0.7073200310D-01
  0.8737710000D+02  0.2400010105D+00
  0.2567890000D+02  0.5947970261D+00
  0.3740040000D+01  0.2808020123D+00
 s    3  1.00
  0.4211750000D+02  0.1138890124D+00
  0.9628370000D+01  0.9208111006D+00
  0.2853320000D+01 -0.3274470358D-02
 s    1  1.00
  0.9056610000D+00  0.1000000000D+01
 s    1  1.00
  0.2556110000D+00  0.1000000000D+01
 p    3  1.00
  0.4211750000D+02  0.3651139738D-01
  0.9628370000D+01  0.2371529830D+00
  0.2853320000D+01  0.8197019412D+00
 p    1  1.00
  0.9056610000D+00  0.1000000000D+01
 p    1  1.00
  0.2556110000D+00  0.1000000000D+01
 d    1  1.00
  0.1292000000D+01  0.1000000000D+01


[MO]
 Sym=      1.1
 Ene=     -20.5676
 Spin= Alpha
 Occup=    2.000000
1 0.000005786800615
2 -0.000067984301756
3 0.000284246266101
4 0.000466167931610
5 0.0
6 -0.000000000043571
7 0.000105394438039
8 0.0
9 -0.000000000072564
10 0.000313668563414
11 0.0
12 0.000000000747183
13 0.000303240561236
14 -0.000043918749066
15 -0.000093069462456
16 0.000136988211522
17 0.0
18 0.0
19 -0.000000000001444
20 0.000006480937342
21 -0.000030329046045
22 0.000010597043689
23 0.0
24 -0.000018072387460
25 -0.000021222078776
26 0.000006480804607
27 -0.000030328171054
28 0.000010597644608
29 0.0
30 0.000018072363092
31 -0.000021221909663
32 0.55145286737248
33 0.47169813845227
34 0.005479050470044
35 -0.000845106975172
36 0.0
37 0.000000001096364
38 -0.001716163500897
39 0.0
40 -0.000000000499658
41 0.000537729301468
42 0.0
43 -0.000000000054962
44 0.000082562556408
45 -0.000233189741379
46 0.000152650163128
47 0.000080539578251
48 0.0
49 0.0
50 0.000000000036051
 Sym=      2.1
 Ene=     -11.3324
 Spin= Alpha
 Occup=    2.000000
1 0.56337623683908
2 0.46663144007090
3 0.003948123040743
4 -0.000065973870831
5 0.0
6 -0.000000001901824
7 0.000324811753706
8 0.0
9 0.000000000940404
10 0.000274858724397
11 0.0
12 -0.000000000347173
13 0.000257918584123
14 -0.000486854982910
15 -0.000028719424049
16 0.000515574406959
17 0.0
18 0.0
19 0.000000000813755
20 0.000389969452491
21 -0.000028612894310
22 0.000187042776150
23 0.0
24 -0.000002891014751
25 0.000048764337244
26 0.000389968977387
27 -0.000028613264916
28 0.000187042699653
29 0.0
30 0.000002889859303
31 0.000048764875113
32 -0.000232904571268
33 -0.000341658518849
34 0.000684943775997
35 -0.000544175641602
36 0.0
37 0.000000000152895
38 -0.000359479269602
39 0.0
40 -0.000000000216088
41 -0.000542673068157
42 0.0
43 -0.000000000097622
44 0.000301271573371
45 -0.000049461748106
46 -0.000183447846803
47 0.000232909594909
48 0.0
49 0.0
50 0.000000000266278
 Sym=      3.1
 Ene=      -1.4214
 Spin= Alpha
 Occup=    2.000000
1 -0.061635986829189
2 -0.098822929671843
3 0.25046194367740
4 0.041276685625086
5 0.0
6 0.000000009219278
7 0.088004325008600
8 0.0
9 -0.000000016125144
10 0.12160746866007
11 0.0
12 -0.000000028784004
13 -0.009745033182828
14 -0.014152924118098
15 -0.020551874751206
16 0.034704798869304
17 0.0
18 0.0
19 0.000000007751530
20 0.016983089843385
21 0.020502097933164
22 -0.004867770943620
23 0.0
24 -0.003611057588093
25 0.006015013708540
26 0.016983034779501
27 0.020502015640067
28 -0.004867799888436
29 0.0
30 0.003610997433131
31 0.006015028814939
32 -0.10577752314918
33 -0.17654263609185
34 0.49713778328542
35 0.34278735851286
36 0.0
37 0.000000000496681
38 -0.066413631097138
39 0.0
40 -0.000000002441685
41 -0.10105145149621
42 0.0
43 0.000000016938699
44 -0.038413329993685
45 -0.009236481045013
46 -0.009317392570444
47 0.018553873615458
48 0.0
49 0.0
50 -0.000000000222835
 Sym=      4.1
 Ene=      -0.8653
 Spin= Alpha
 Occup=    2.000000
1 -0.086985664530347
2 -0.14559642419735
3 0.39596995120445
4 0.25311763587092
5 0.0
6 0.000000028997333
7 -0.081520471372764
8 0.0
9 0.000000028084843
10 -0.11655183022665
11 0.0
12 -0.000000024036274
13 -0.067788263319314
14 -0.009685596610071
15 0.014907620126977
16 -0.005222023516906
17 0.0
18 0.0
19 0.000000050231726
20 0.10733392743770
21 0.15507139394891
22 0.006247013519806
23 0.0
24 -0.021040102078178
25 0.008968476370559
26 0.10733406755018
27 0.15507154447645
28 0.006247008282213
29 0.0
30 0.021040078942091
31 0.008968569847161
32 0.047172231607754
33 0.079743225480069
34 -0.23531951179684
35 -0.24589469650548
36 0.0
37 0.000000042500748
38 -0.068603139023045
39 0.0
40 0.000000058908591
41 -0.10375961589534
42 0.0
43 0.000000047115263
44 -0.067447576707651
45 -0.001981957582312
46 -0.004225604256124
47 0.006207561838436
48 0.0
49 0.0
50 -0.000000002754372
 Sym=      5.1
 Ene=      -0.6988
 Spin= Alpha
 Occup=    2.000000
1 -0.000000002071083
2 -0.000000005363364
3 0.000000050041577
4 -0.000000033400223
5 0.0
6 0.17842249169358
7 0.000000353764022
8 0.0
9 0.27586658200110
10 0.000000461797672
11 0.0
12 0.13016444603522
13 0.000000102142887
14 -0.000000026244728
15 0.000000052814190
16 -0.000000026569462
17 0.0
18 0.0
19 0.006472617891134
20 0.10714862787854
21 0.16293197743871
22 0.039011420554381
23 0.0
24 -0.014966340546589
25 0.009404333133928
26 -0.10714873257657
27 -0.16293227573009
28 -0.039011506558129
29 0.0
30 -0.014966366580295
31 -0.009404437819749
32 0.000000081513899
33 0.000000137717185
34 -0.000000418850168
35 -0.000000574252191
36 0.0
37 0.15852104887588
38 -0.000000349615481
39 0.0
40 0.24916152616901
41 -0.000000524937584
42 0.0
43 0.18047654572566
44 -0.000000366756037
45 -0.000000022413540
46 -0.000000019310552
47 0.000000041724092
48 0.0
49 0.0
50 -0.020631408031696
 Sym=      6.1
 Ene=      -0.6565
 Spin= Alpha
 Occup=    2.000000
1 0.011532857152921
2 0.018842024661469
3 -0.074421980307226
4 0.061886015923008
5 0.0
6 0.000000304990215
7 -0.16868068889006
8 0.0
9 0.000000516215999
10 -0.26260356513991
11 0.0
12 0.000000298366426
13 -0.059639005417947
14 0.003810812268705
15 0.025011154421842
16 -0.028821966690547
17 0.0
18 0.0
19 0.000000063590989
20 0.056469887983084
21 0.081107560032715
22 0.033918404610523
23 0.0
24 -0.009695636946348
25 -0.002975493017152
26 0.056469756643151
27 0.081107459538475
28 0.033918337230899
29 0.0
30 0.009695647135690
31 -0.002975458825068
32 -0.037265766287558
33 -0.063135517346860
34 0.19242902882138
35 0.29967957965885
36 0.0
37 0.000000370372440
38 0.23607736840547
39 0.0
40 0.000000581579701
41 0.34515905816883
42 0.0
43 0.000000419707669
44 0.25354579195548
45 0.011923991955306
46 0.013460093520318
47 -0.025384085475624
48 0.0
49 0.0
50 -0.000000037867418
 Sym=      1.2
 Ene=      -0.5436
 Spin= Alpha
 Occup=    2.000000
1 0.0
2 0.0
3 0.0
4 0.0
5 0.14555254364755
6 0.0
7 0.0
8 0.24421128685794
9 0.0
10 0.0
11 0.18477116896520
12 0.0
13 0.0
14 0.0
15 0.0
16 0.0
17 0.000000000617812
18 0.053928056889094
19 0.0
20 0.0
21 0.0
22 0.0
23 0.007986446021868
24 0.0
25 0.0
26 0.0
27 0.0
28 0.0
29 0.007986464964000
30 0.0
31 0.0
32 0.0
33 0.0
34 0.0
35 0.0
36 0.22098399933849
37 0.0
38 0.0
39 0.34711726013604
40 0.0
41 0.0
42 0.31069984758196
43 0.0
44 0.0
45 0.0
46 0.0
47 0.0
48 0.000000003887033
49 -0.029491297861817
50 0.0
 Sym=      7.1
 Ene=      -0.4358
 Spin= Alpha
 Occup=    2.000000
1 0.000000008328514
2 0.000000011451221
3 -0.000000003952290
4 -0.000000046329304
5 0.0
6 -0.084574920952165
7 0.000000083777538
8 0.0
9 -0.14284351328148
10 0.000000128627015
11 0.0
12 -0.030414573236788
13 0.000000426118393
14 -0.000000019751808
15 -0.000000084387115
16 0.000000104138922
17 0.0
18 0.0
19 0.071874948871380
20 -0.10324890156698
21 -0.22911430602335
22 -0.12802115504073
23 0.0
24 0.004776786337726
25 -0.007623691043778
26 0.10324870631259
27 0.22911405813271
28 0.12802114729798
29 0.0
30 0.004776682548149
31 0.007623708124455
32 -0.000000006758148
33 -0.000000011969159
34 0.000000042304108
35 -0.000000274938343
36 0.0
37 0.24729082838297
38 -0.000000150170837
39 0.0
40 0.37388599139213
41 -0.000000209014362
42 0.0
43 0.39231822055803
44 -0.000000132977625
45 -0.000000005230861
46 -0.000000006216720
47 0.000000011447581
48 0.0
49 0.0
50 -0.009642273088726
 Sym=      2.2
 Ene=       0.1374
 Spin= Alpha
 Occup=    0.000000
1 0.0
2 0.0
3 0.0
4 0.0
5 0.17806651113304
6 0.0
7 0.0
8 0.25464819876997
9 0.0
10 0.0
11 0.75440594146774
12 0.0
13 0.0
14 0.0
15 0.0
16 0.0
17 0.000000002685875
18 -0.037527671884353
19 0.0
20 0.0
21 0.0
22 0.0
23 0.023413913039807
24 0.0
25 0.0
26 0.0
27 0.0
28 0.0
29 0.023413974279308
30 0.0
31 0.0
32 0.0
33 0.0
34 0.0
35 0.0
36 -0.18008001455976
37 0.0
38 0.0
39 -0.24013801986853
40 0.0
41 0.0
42 -0.54591760695953
43 0.0
44 0.0
45 0.0
46 0.0
47 0.0
48 -0.000000000625324
49 -0.005636809028466
50 0.0
 Sym=      8.1
 Ene=       0.1594
 Spin= Alpha
 Occup=    0.000000
1 0.042078163541369
2 0.068562213507445
3 -0.093550613002756
4 -1.81666829942816
5 0.0
6 0.000000019365809
7 0.082253034557953
8 0.0
9 -0.000000008976523
10 0.055353999285179
11 0.0
12 0.000000190088871
13 0.43336958388153
14 0.002765053122245
15 0.012098386822948
16 -0.014863439945192
17 0.0
18 0.0
19 0.000000028234865
20 0.023878899533597
21 -0.076616776757829
22 1.33629301518760
23 0.0
24 0.011479366741770
25 -0.005053806912424
26 0.023878879179949
27 -0.076617263126364
28 1.33629655064503
29 0.0
30 -0.011479406602502
31 -0.005053865261279
32 0.001084797108923
33 0.001240648611176
34 -0.000512775160762
35 0.015146826569850
36 0.0
37 -0.000000051779997
38 -0.024794121073250
39 0.0
40 -0.000000043597395
41 -0.047835148487406
42 0.0
43 -0.000000276444875
44 -0.11642374577636
45 -0.003542286168425
46 -0.000763501529476
47 0.004305787697900
48 0.0
49 0.0
50 0.000000004850959
 Sym=      9.1
 Ene=       0.2133
 Spin= Alpha
 Occup=    0.000000
1 0.000000010741526
2 0.000000016070245
3 0.000000032547592
4 -0.000001237203038
5 0.0
6 -0.14339213132094
7 -0.000000015445353
8 0.0
9 -0.089481684187391
10 0.000000135295468
11 0.0
12 -1.10963222333413
13 -0.000000512566948
14 0.000000043865470
15 0.000000095675283
16 -0.000000139540752
17 0.0
18 0.0
19 -0.028317578901324
20 0.001242989947897
21 -0.22406685387091
22 1.90288827345712
23 0.0
24 0.030672032650076
25 -0.015926485534337
26 -0.001242975139733
27 0.22406683259567
28 -1.90288584174113
29 0.0
30 0.030671952705743
31 0.015926661588934
32 0.000000037319179
33 0.000000063600570
34 -0.000000191622748
35 -0.000000301129729
36 0.0
37 0.035595080267445
38 0.000000022747241
39 0.0
40 0.033481731425288
41 0.000000010028229
42 0.0
43 0.21539221712640
44 0.000000046455288
45 -0.000000000145546
46 0.000000009303812
47 -0.000000009158266
48 0.0
49 0.0
50 0.007531244548715
 Sym=     10.1
 Ene=       0.3331
 Spin= Alpha
 Occup=    0.000000
1 -0.010300694684014
2 -0.019581676410130
3 0.006832750016249
4 1.52779274404238
5 0.0
6 -0.000000034113943
7 0.007014196779504
8 0.0
9 0.000000045742306
10 0.073917263007043
11 0.0
12 -0.000000932338175
13 1.91728762187446
14 -0.003250458560670
15 -0.007505070781219
16 0.010755529341889
17 0.0
18 0.0
19 0.000000018485565
20 -0.008698346264163
21 0.11115329805426
22 0.068160263119015
23 0.0
24 -0.000128484193045
25 0.010199994321114
26 -0.008698721288519
27 0.11115129293041
28 0.068165549748171
29 0.0
30 0.000128319743820
31 0.010200143268273
32 0.038307641721558
33 0.061914039949936
34 -0.079779485500419
35 -2.01590438039188
36 0.0
37 0.000000105471542
38 0.046245048033111
39 0.0
40 0.000000132285243
41 0.073293695561934
42 0.0
43 0.000000442874085
44 0.66443546489279
45 0.013824227514368
46 0.014340614498097
47 -0.028164842012465
48 0.0
49 0.0
50 0.000000005008237
 Sym=     11.1
 Ene=       0.4798
 Spin= Alpha
 Occup=    0.000000
1 -0.019026225014010
2 -0.033772158109111
3 -0.091238371786444
4 2.24582500092515
5 0.0
6 -0.000000052855153
7 -0.033256563927623
8 0.0
9 0.000000014010593
10 -0.11235078789666
11 0.0
12 0.000002981646430
13 -0.68641548332087
14 0.003842748979583
15 0.007337618872490
16 -0.011180367852073
17 0.0
18 0.0
19 0.000000036920940
20 -0.064252465904928
21 -1.35694936018570
22 0.020910229570762
23 0.0
24 0.033261671509550
25 -0.051368313526751
26 -0.064252558419335
27 -1.35694870718559
28 0.020911809415096
29 0.0
30 -0.033261441449672
31 -0.051368325438733
32 0.013850840100561
33 0.023343215048834
34 -0.059298206763942
35 -0.33228451826880
36 0.0
37 0.000000097882489
38 0.018309067579575
39 0.0
40 0.000000246342132
41 -0.008735781515304
42 0.0
43 -0.000000689873489
44 0.28563469855506
45 0.011677007964957
46 -0.006400124136141
47 -0.005276883828816
48 0.0
49 0.0
50 0.000000057663867
 Sym=     12.1
 Ene=       0.5713
 Spin= Alpha
 Occup=    0.000000
1 0.000000024828968
2 0.000000040391678
3 -0.000000192617134
4 0.000004221388181
5 0.0
6 0.048227215530462
7 -0.000000095271216
8 0.0
9 0.11235689115998
10 0.000000361924561
11 0.0
12 2.49888892170323
13 0.000008755001400
14 -0.000000028054249
15 0.000000020282996
16 0.000000007771253
17 0.0
18 0.0
19 -0.071463710755600
20 -0.035469547404575
21 -1.35070335369457
22 -0.46262501533743
23 0.0
24 0.072105440183911
25 -0.003348861036889
26 0.035469693520403
27 1.35070412748811
28 0.46262591544842
29 0.0
30 0.072105485876414
31 0.003348985350954
32 0.000000074093977
33 0.000000113419784
34 0.000000044158055
35 -0.000007322375269
36 0.0
37 -0.12740628424438
38 -0.000000207849757
39 0.0
40 -0.18393814558457
41 -0.000000459893378
42 0.0
43 -0.58223451775264
44 0.000002078266372
45 0.000000072082370
46 0.000000007414629
47 -0.000000079496999
48 0.0
49 0.0
50 -0.014929829174046
 Sym=      3.2
 Ene=       0.5732
 Spin= Alpha
 Occup=    0.000000
1 0.0
2 0.0
3 0.0
4 0.0
5 -0.22654614847151
6 0.0
7 0.0
8 -0.95079109044908
9 0.0
10 0.0
11 1.15188105576066
12 0.0
13 0.0
14 0.0
15 0.0
16 0.0
17 0.000000016110764
18 -0.025756322532891
19 0.0
20 0.0
21 0.0
22 0.0
23 -0.029023653873442
24 0.0
25 0.0
26 0.0
27 0.0
28 0.0
29 -0.029023644378449
30 0.0
31 0.0
32 0.0
33 0.0
34 0.0
35 0.0
36 0.011208117992847
37 0.0
38 0.0
39 0.005375977457622
40 0.0
41 0.0
42 -0.021287966434704
43 0.0
44 0.0
45 0.0
46 0.0
47 0.0
48 -0.000000000915891
49 0.024874025474860
50 0.0
 Sym=     13.1
 Ene=       0.7437
 Spin= Alpha
 Occup=    0.000000
1 0.000000081526874
2 0.000000161127760
3 -0.000000880597125
4 -0.000000386969289
5 0.0
6 0.25733963755755
7 -0.000000209264852
8 0.0
9 1.02570120053078
10 -0.000000638433597
11 0.0
12 -1.80033633197498
13 -0.000000982626726
14 -0.000000098403006
15 -0.000000321080070
16 0.000000419483076
17 0.0
18 0.0
19 0.090937477954760
20 -0.053406229522964
21 -0.43406934395392
22 1.49773310894770
23 0.0
24 -0.028694766784056
25 0.048118739823854
26 0.053406153883768
27 0.43406838444300
28 -1.49773178937788
29 0.0
30 -0.028694513624832
31 -0.048119074596016
32 -0.000000035938809
33 -0.000000061410136
34 0.000000181863301
35 0.000000429872476
36 0.0
37 -0.006500192835584
38 -0.000000263163660
39 0.0
40 0.005237083564358
41 -0.000000419749937
42 0.0
43 0.029554883481061
44 -0.000000528199884
45 0.000000036368564
46 0.000000039591799
47 -0.000000075960363
48 0.0
49 0.0
50 -0.028852706428810
 Sym=     14.1
 Ene=       0.8044
 Spin= Alpha
 Occup=    0.000000
1 0.080353164549513
2 0.16513620576985
3 -1.19320625730946
4 3.72550391128609
5 0.0
6 -0.000000037196393
7 0.17650165688642
8 0.0
9 0.000000181174144
10 0.81185603436340
11 0.0
12 0.000000918863064
13 -0.83811181633466
14 -0.090518875941243
15 0.064907197890003
16 0.025611678051240
17 0.0
18 0.0
19 0.000000303647754
20 0.051649866846102
21 0.018878930895550
22 -1.19689417834867
23 0.0
24 0.12518819021967
25 -0.057150975789101
26 0.051649859193723
27 0.018880332673237
28 -1.19689622679260
29 0.0
30 -0.12518813016430
31 -0.057151362974776
32 0.012999444874506
33 0.022451320177082
34 -0.034054118822275
35 -0.80846811717070
36 0.0
37 0.000000045729967
38 -0.010935442925072
39 0.0
40 0.000000114207063
41 -0.033642404075834
42 0.0
43 -0.000000428980447
44 0.81344275995582
45 0.013374009430545
46 0.006359895109937
47 -0.019733904540482
48 0.0
49 0.0
50 0.000000020122641
 Sym=     15.1
 Ene=       0.8939
 Spin= Alpha
 Occup=    0.000000
1 -0.089270197731111
2 -0.19082633565374
3 1.47445713970377
4 -0.70725328074417
5 0.0
6 0.000000240298685
7 0.17119322729773
8 0.0
9 0.000000841932378
10 0.80088867436863
11 0.0
12 -0.000001637344457
13 -0.16059059976604
14 0.090830580164041
15 -0.000188890676050
16 -0.090641689487990
17 0.0
18 0.0
19 -0.000000128324032
20 -0.015825524541623
21 0.068079343105284
22 0.23728683352953
23 0.0
24 -0.059100404228003
25 0.071373068182844
26 -0.015825545932811
27 0.068081177966508
28 0.23728327406799
29 0.0
30 0.059100156275171
31 0.071373233529225
32 0.040259830537341
33 0.072125355444645
34 -0.24251062455241
35 -0.39641681308077
36 0.0
37 -0.000000070240359
38 0.064857490603656
39 0.0
40 -0.000000112411953
41 -0.066236680030949
42 0.0
43 0.000000111464601
44 1.28363252689156
45 -0.030043462120455
46 -0.027373693751355
47 0.057417155871810
48 0.0
49 0.0
50 -0.000000058739740
 Sym=     16.1
 Ene=       0.9952
 Spin= Alpha
 Occup=    0.000000
1 0.027473067570711
2 0.045302229682512
3 0.041236159174529
4 0.72614400327988
5 0.0
6 -0.000000345004815
7 -0.14226017185107
8 0.0
9 -0.000000835528704
10 -0.17454133290847
11 0.0
12 0.000001286965617
13 0.71415594161568
14 -0.16840920138097
15 -0.14811602503817
16 0.31652522641915
17 0.0
18 0.0
19 -0.000000166095243
20 0.020062355847315
21 0.049920501940624
22 0.003045038645098
23 0.0
24 -0.065318610251561