
 Working directory              : /tmp/lme/molpro.DDQoiN9BJO/
 Global scratch directory       : /tmp/lme/molpro.DDQoiN9BJO/
 Wavefunction directory         : /home/lme/wfu/
 Main file repository           : /tmp/lme/molpro.DDQoiN9BJO/

 id        : liedlgroup

 Nodes     nprocs
 sv1-c724     6
 GA implementation: MPI file
 GA implementation (serial work in mppx): MPI file

 Using customized tuning parameters: mindgm=1; mindgv=20; mindgc=4; mindgr=1; noblas=0; minvec=7
 default implementation of scratch files=sf  


 Variables initialized (1025), CPU time= 0.00 sec
 memory, 200, m                                                                  ! Memory Requirements
 gthresh, optgrad=1.d-7,twoint=1.d-14,prefac=1.d-16                            ! Guntram Rezept um numerischen Schmutz zu entfernen
 orient,mass
 geometry = {
   H      1.0686     -0.1411      1.0408
   C      0.5979      0.0151      0.0688
   H      1.2687      0.2002     -0.7717
   O     -0.5960     -0.0151     -0.0686
 }
 
 mass, iso
 basis=6-311g(d,p)
 
 {hf
 start,atden}
 
 optg
 {frequencies, symm=auto, print=0,analytical}
 put,molden,hcoh.molden
 Commands initialized (840), CPU time= 0.01 sec, 684 directives.
 Default parameters read. Elapsed time= 0.08 sec

 Checking input...
 Passed
1


                                         ***  PROGRAM SYSTEM MOLPRO  ***
                                       Copyright, TTI GmbH Stuttgart, 2015
                                    Version 2022.3 linked Wed Nov 30 12:40:34 2022


 **********************************************************************************************************************************
 LABEL *                                                                                 
  (6 PROC) 64 bit mpp version                                                            DATE: 25-Aug-25          TIME: 16:27:16  
 **********************************************************************************************************************************

 SHA1:             e31ec9a5ea85254ab76f59d122cbdd51c71cf98b
 **********************************************************************************************************************************

 Memory per process:       200 MW
 Total memory per node:   1200 MW

 GA preallocation disabled
 GA check disabled

 Variable memory set to 200.0 MW


 THRESHOLDS:

 ZERO    =  1.00D-12  ONEINT  =  1.00D-12  TWOINT  =  1.00D-14  PREFAC  =  1.00D-16  XXXXXX  =  1.00D-09  EORDER  =  1.00D-04
 ENERGY  =  0.00D+00  ETEST   =  0.00D+00  EDENS   =  0.00D+00  THRDEDEF=  1.00D-06  GRADIENT=  1.00D-05  STEP    =  1.00D-03
 ORBITAL =  1.00D-05  CIVEC   =  1.00D-05  COEFF   =  1.00D-04  PRINTCI =  5.00D-02  PUNCHCI =  9.90D+01  OPTGRAD =  1.00D-07
 OPTENERG=  1.00D-06  OPTSTEP =  3.00D-04  THRGRAD =  1.00D-10  COMPRESS=  1.00D-11  VARMIN  =  1.00D-07  VARMAX  =  1.00D-03
 THRDOUB =  0.00D+00  THRDIV  =  1.00D-05  THRRED  =  1.00D-07  THRPSP  =  1.00D+00  THRDC   =  1.00D-10  THRCS   =  1.00D-10
 THRNRM  =  1.00D-08  THREQ   =  0.00D+00  THRDE   =  1.00D+00  THRREF  =  1.00D-05  SPARFAC =  1.00D+00  THRDLP  =  1.00D-07
 THRDIA  =  1.00D-10  THRDLS  =  1.00D-07  THRGPS  =  0.00D+00  THRKEX  =  0.00D+00  THRDIS  =  2.00D-01  THRVAR  =  1.00D-10
 THRLOC  =  1.00D-06  THRGAP  =  1.00D-06  THRLOCT = -1.00D+00  THRGAPT = -1.00D+00  THRORB  =  1.00D-06  THRMLTP =  0.00D+00
 THRCPQCI=  1.00D-10  KEXTA   =  0.00D+00  THRCOARS=  0.00D+00  SYMTOL  =  1.00D-06  GRADTOL =  1.00D-06  THROVL  =  1.00D-08
 THRORTH =  1.00D-08  THRDLOVL= -1.00D+00  GRID    =  1.00D-06  GRIDMAX =  1.00D-03  DTMAX   =  0.00D+00  THROCCDE=  1.00D-01
 THROCCDE=  1.00D-01  THRPRINT=  2.50D-01

 ZCENTRE=MASS


 Geometry recognized as XYZ



 Using masses of most abundant isotopes

 **********************************************************************************************************************************
 SETTING BASIS          =    6-311G(D,P)


 Recomputing integrals since basis changed


 Using spherical harmonics

 Library entry H      S 6-311G               selected for orbital group  1
 Library entry H      P 6-311G**             selected for orbital group  1
 Library entry C      S 6-311G               selected for orbital group  2
 Library entry C      P 6-311G               selected for orbital group  2
 Library entry C      D 6-311G*              selected for orbital group  2
 Library entry O      S 6-311G               selected for orbital group  4
 Library entry O      P 6-311G               selected for orbital group  4
 Library entry O      D 6-311G*              selected for orbital group  4


 PROGRAM * SEWARD (Integral evaluation for generally contracted gaussian basis sets)     Author: Roland Lindh, 1990

 Geometry written to block  1 of record 700

 Orientation using atomic masses  
 Molecule type: Asymmetric top
 Rotational constants:      34.5314307     39.1735485    291.4011920 GHz

 Point group  C1  



 ATOMIC COORDINATES

 NR  ATOM    CHARGE       X              Y              Z

   1  H       1.00    0.000032837    1.752993686    2.223753309
   2  C       6.00   -0.000008153   -0.000009225    1.137846386
   3  H       1.00    0.000032841   -1.752782873    2.224014785
   4  O       8.00    0.000001978   -0.000006362   -1.133906256

 Bond lengths in Bohr (Angstrom)

 1-2  2.062089487  2-3  2.062032312  2-4  2.271752643
     ( 1.091210763)     ( 1.091180508)     ( 1.202159727)

 Bond angles

  1-2-3  116.43774202   1-2-4  121.77629125   3-2-4  121.78596667

 NUCLEAR CHARGE:                   16
 NUMBER OF PRIMITIVE AOS:          80
 NUMBER OF SYMMETRY AOS:           78
 NUMBER OF CONTRACTIONS:           48   (   48A   )
 NUMBER OF INNER CORE ORBITALS:     0   (    0A   )
 NUMBER OF OUTER CORE ORBITALS:     2   (    2A   )
 NUMBER OF VALENCE ORBITALS:       10   (   10A   )


 NUCLEAR REPULSION ENERGY   31.45782126


 Eigenvalues of metric

         1 0.134E-01 0.224E-01 0.271E-01 0.326E-01 0.462E-01 0.693E-01 0.975E-01 0.108E+00


 Contracted 2-electron integrals neglected if value below      1.0D-14
 AO integral compression algorithm  1   Integral accuracy      1.0D-14

     5.767 MB (compressed) written to integral file ( 77.0%)

     Node minimum: 0.786 MB, node maximum: 1.049 MB


 NUMBER OF SORTED TWO-ELECTRON INTEGRALS:     115836.     BUFFER LENGTH:  32768
 NUMBER OF SEGMENTS:   1  SEGMENT LENGTH:     115836      RECORD LENGTH: 524288

 Memory used in sort:       0.67 MW

 SORT1 READ      943706. AND WROTE      110228. INTEGRALS IN      1 RECORDS. CPU TIME:     0.00 SEC, REAL TIME:     0.02 SEC
 SORT2 READ      653653. AND WROTE      692076. INTEGRALS IN     24 RECORDS. CPU TIME:     0.01 SEC, REAL TIME:     0.00 SEC

 Node minimum:      114856.  Node maximum:      115836. integrals

 OPERATOR DM      FOR CENTER  0  COORDINATES:    0.000000    0.000000    0.000000


 **********************************************************************************************************************************
 DATASETS  * FILE   NREC   LENGTH (MB)   RECORD NAMES
              1      18       28.69       500      610      700      900      950      970     1000      129      960     1100   
                                          VAR    BASINP    GEOM    SYMINP    ZMAT    AOBASIS   BASIS     P2S    ABASIS      S 
                                         1400     1410     1200     1210     1080     1600     1650     1700   
                                           T        V       H0       H01     AOSYM     SMH    MOLCAS    OPER   

 PROGRAMS   *        TOTAL       INT
 CPU TIMES  *         0.34      0.19
 REAL TIME  *         0.47 SEC
 DISK USED  *        29.00 MB (local),      201.73 MB (total)
 GA USED    *         0.00 MB       (max)       0.00 MB       (current)
 **********************************************************************************************************************************


 Program * Restricted Hartree-Fock

 Orbital guess generated from atomic densities.

 Initial occupancy:   8

 NELEC=   16   SYM=1   MS2= 0   THRE=1.0D-08   THRD=1.0D-06   THRG=1.0D-06  HFMA2=F  DIIS_START=2   DIIS_MAX=10   DIIS_INCORE=F

 Level shifts:    0.00 (CLOSED)    0.00 (OPEN)    0.30 (GAP_MIN)

 ITER           ETOT              DE          GRAD        DDIFF     DIIS  NEXP   TIME(IT)  TIME(TOT)  DIAG
   1     -113.84652723    -113.84652723     0.00D+00     0.69D-01     0     0       0.02      0.05    start
   2     -113.87028353      -0.02375630     0.14D-01     0.11D-01     1     0       0.02      0.07    diag
   3     -113.89767970      -0.02739618     0.11D-01     0.50D-02     2     0       0.01      0.08    diag
   4     -113.89809843      -0.00041873     0.88D-03     0.75D-03     3     0       0.03      0.11    diag
   5     -113.89815579      -0.00005737     0.30D-03     0.31D-03     4     0       0.02      0.13    diag
   6     -113.89817017      -0.00001438     0.12D-03     0.17D-03     5     0       0.01      0.14    diag
   7     -113.89817199      -0.00000182     0.50D-04     0.74D-04     6     0       0.02      0.16    diag
   8     -113.89817204      -0.00000004     0.83D-05     0.12D-04     7     0       0.01      0.17    fixocc
   9     -113.89817204      -0.00000000     0.99D-06     0.14D-05     8     0       0.02      0.19    diag
  10     -113.89817204      -0.00000000     0.21D-06     0.29D-06     9     0       0.03      0.22    diag/orth
  11     -113.89817204      -0.00000000     0.33D-07     0.37D-07     0     0       0.02      0.24    diag

 Final occupancy:   8

 !RHF STATE 1.1 Energy               -113.898172035766
  RHF One-electron energy            -217.716507143688
  RHF Two-electron energy              72.360513843779
  RHF Kinetic energy                  113.830162605413
  RHF Nuclear energy                   31.457821264144
  RHF Virial quotient                  -1.000597464053

 !RHF STATE 1.1 Dipole moment           0.00000218    -0.00002406     1.09332563
 Dipole moment /Debye                   0.00000553    -0.00006116     2.77895656

 Orbital energies:

           1.1          2.1          3.1          4.1          5.1          6.1          7.1          8.1          9.1         10.1
    -20.568664   -11.335972    -1.405435    -0.870188    -0.695173    -0.649784    -0.532932    -0.439592     0.130232     0.158459


 HOMO      8.1    -0.439592 =     -11.9619eV
 LUMO      9.1     0.130232 =       3.5438eV
 LUMO-HOMO         0.569824 =      15.5057eV

 Orbitals saved in record  2100.2


 **********************************************************************************************************************************
 DATASETS  * FILE   NREC   LENGTH (MB)   RECORD NAMES
              1      18       28.69       500      610      700      900      950      970     1000      129      960     1100   
                                          VAR    BASINP    GEOM    SYMINP    ZMAT    AOBASIS   BASIS     P2S    ABASIS      S 
                                         1400     1410     1200     1210     1080     1600     1650     1700   
                                           T        V       H0       H01     AOSYM     SMH    MOLCAS    OPER   

              2       4        0.43       700     1000      520     2100   
                                         GEOM     BASIS   MCVARS     RHF  

 PROGRAMS   *        TOTAL    HF-SCF       INT
 CPU TIMES  *         0.59      0.25      0.19
 REAL TIME  *         0.62 SEC
 DISK USED  *        29.33 MB (local),      203.71 MB (total)
 GA USED    *         0.00 MB       (max)       0.00 MB       (current)
 **********************************************************************************************************************************


 PROGRAM * OPT (Geometry optimization)     Authors: F. Eckert and H.-J. Werner


 BFGS update of hessian

 *** Long output written to logfile /home/lme/overlap_integral_gaussian/molpro_files/formaldehyde/hcoh.log ***


 Geometry optimization using default procedure for command HF-SCF

 Geometry written to block  1 of record 700

 Entering BMAT geometry-optimization, modelhes=F
 Optimization method: RF

 ITER.   ENERGY(OLD)    ENERGY(NEW)      DE          GRADMAX     GRADNORM    GRADRMS     STEPMAX     STEPLEN     STEPRMS   CPU-time
   1  -113.89817204  -113.89912176    -0.00094972  0.04322720  0.06106765  0.01762871  0.02998782  0.03481578  0.01740789      1.05
   2  -113.89912176  -113.89915084    -0.00002908  0.00745776  0.00886121  0.00255801  0.00565687  0.00732918  0.00366459      2.08
   3  -113.89915084  -113.89915391    -0.00000308  0.00079516  0.00117081  0.00033798  0.00223287  0.00495127  0.00247563      3.17
   4  -113.89915391  -113.89915404    -0.00000013  0.00022633  0.00030385  0.00008771  0.00061237  0.00119742  0.00059871      4.25
   5  -113.89915404  -113.89915404    -0.00000000  0.00002611  0.00003552  0.00001025  0.00002583  0.00003927  0.00001964      5.27
   6  -113.89915404  -113.89915404    -0.00000000  0.00000423  0.00000521  0.00000150  0.00000125  0.00000173  0.00000087      6.18
   7  -113.89915404  -113.89915404     0.00000000  0.00000423  0.00000490  0.00000141  0.00000015  0.00000018  0.00000009      7.08
   8  -113.89915404  -113.89915404     0.00000000  0.00000423  0.00000490  0.00000141  0.00000009  0.00000011  0.00000005      7.89
   9  -113.89915404  -113.89915404    -0.00000000  0.00000423  0.00000489  0.00000141  0.00000004  0.00000006  0.00000003      8.93
  10  -113.89915404  -113.89785257     0.00130147  0.00000423  0.00000489  0.00000141  0.02923780  0.03983009  0.01991505     10.05
  11  -113.89785257  -113.89915404    -0.00130147  0.05093199  0.07005998  0.02022457  0.02924764  0.03985820  0.01992910     11.15
  12  -113.89915404  -113.89915403     0.00000001  0.00006880  0.00009221  0.00002662  0.00026307  0.00038980  0.00019490     12.26
  13  -113.89915403  -113.89915404    -0.00000001  0.00004893  0.00008356  0.00002412  0.00018747  0.00026934  0.00013467     13.25
  14  -113.89915404  -113.89915404    -0.00000000  0.00001031  0.00001289  0.00000372  0.00001119  0.00001771  0.00000885     14.28
  15  -113.89915404  -113.89915404    -0.00000000  0.00000423  0.00000679  0.00000196  0.00000571  0.00001190  0.00000595     15.24
  16  -113.89915404  -113.89915404    -0.00000000  0.00000423  0.00000505  0.00000146  0.00000127  0.00000214  0.00000107     16.40
  17  -113.89915404  -113.89915404     0.00000000  0.00000423  0.00000489  0.00000141  0.00000020  0.00000027  0.00000014     17.33
  18  -113.89915404  -113.89915404    -0.00000000  0.00000423  0.00000489  0.00000141  0.00000003  0.00000005  0.00000003     18.23
  19  -113.89915404  -113.89915404     0.00000000  0.00000423  0.00000489  0.00000141  0.00000004  0.00000006  0.00000003     19.13
  20  -113.89915404  -113.89915404     0.00000000  0.00000423  0.00000489  0.00000141  0.00000002  0.00000004  0.00000003     20.00
  21  -113.89915404  -113.89830303     0.00085101  0.00000423  0.00000489  0.00000141  0.04025256  0.06228731  0.03114366     21.13
  22  -113.89830303  -113.89915401    -0.00085097  0.02366649  0.03351808  0.00967584  0.04040538  0.06238913  0.03119457     22.16
  23  -113.89915401  -113.89910808     0.00004593  0.00026018  0.00034019  0.00009820  0.00756743  0.01327609  0.00663804     23.14
  24  -113.89910808  -113.89915404    -0.00004597  0.00864237  0.01201518  0.00346848  0.00741591  0.01295361  0.00647681     24.17
  25  -113.89915404  -113.89915404    -0.00000000  0.00000815  0.00001143  0.00000330  0.00000583  0.00000731  0.00000366     25.18
  26  -113.89915404  -113.89915404    -0.00000000  0.00000424  0.00000498  0.00000144  0.00000055  0.00000088  0.00000044     26.11
  27  -113.89915404  -113.89915404    -0.00000000  0.00000424  0.00000494  0.00000143  0.00000026  0.00000035  0.00000017     26.98
  28  -113.89915404  -113.89915404     0.00000000  0.00000424  0.00000490  0.00000141  0.00000006  0.00000008  0.00000004     27.83
  29  -113.89915404  -113.89915404    -0.00000000  0.00000424  0.00000490  0.00000142  0.00000003  0.00000004  0.00000003     28.82
  30  -113.89915404  -113.89915404    -0.00000000  0.00000424  0.00000490  0.00000141  0.00000000  0.00000001  0.00000000     29.78
  31  -113.89915404  -113.89915404     0.00000000  0.00000424  0.00000490  0.00000141  0.00000004  0.00000009  0.00000005     30.75
  32  -113.89915404  -113.89915404    -0.00000000  0.00000424  0.00000489  0.00000141  0.00000001  0.00000002  0.00000001     31.73
  33  -113.89915404  -113.89915404    -0.00000000  0.00000424  0.00000489  0.00000141  0.00000014  0.00000024  0.00000013     32.58
  34  -113.89915404  -113.89915404     0.00000000  0.00000424  0.00000489  0.00000141  0.00000009  0.00000015  0.00000008     33.42
  35  -113.89915404  -113.89915404    -0.00000000  0.00000424  0.00000489  0.00000141  0.00000001  0.00000002  0.00000008     34.38
  36  -113.89915404  -113.89915404     0.00000000  0.00000424  0.00000489  0.00000141  0.00000015  0.00000024  0.00000012     35.29
  37  -113.89915404  -113.89915404    -0.00000000  0.00000424  0.00000490  0.00000141  0.00000012  0.00000018  0.00000010     36.21
  38  -113.89915404  -113.89915404    -0.00000000  0.00000424  0.00000489  0.00000141  0.00000001  0.00000001  0.00000001     37.14
  39  -113.89915404  -113.89915404     0.00000000  0.00000424  0.00000489  0.00000141  0.00000001  0.00000001  0.00000000     37.98
  40  -113.89915404  -113.89915404    -0.00000000  0.00000424  0.00000489  0.00000141  0.00000002  0.00000003  0.00000002     38.93
  41  -113.89915404  -113.89915404     0.00000000  0.00000424  0.00000489  0.00000141  0.00000001  0.00000001  0.00000002     39.86
  42  -113.89915404  -113.89915404     0.00000000  0.00000424  0.00000489  0.00000141  0.00000001  0.00000001  0.00000003     40.75
  43  -113.89915404  -113.89785554     0.00129850  0.00000424  0.00000489  0.00000141  0.03799021  0.05959220  0.02979609     41.80
 icen=                    1   j=                    2   zcoord=   1.7908590484229208       x=   1.7528688537200439     
 icen=                    1   j=                    3   zcoord=   2.2293462483993469       x=   2.2192918694800410     
 icen=                    2   j=                    1   zcoord=  -2.0231552226512023E-006  x=   2.5889528504866047E-007
 icen=                    2   j=                    2   zcoord=   8.2111199360393320E-004  x=   4.9201889703212788E-005
 icen=                    2   j=                    3   zcoord=   1.0954709887455714       x=   1.1201384918855610     
 icen=                    3   j=                    2   zcoord=  -1.7882188915730350       x=  -1.7526562793519738     
 icen=                    3   j=                    3   zcoord=   2.2239436892393427       x=   2.2194739267354855     
 icen=                    4   j=                    2   zcoord=  -3.2660043222082985E-003  x=  -6.6509026742613911E-005
 icen=                    4   j=                    3   zcoord=  -1.0970527434048314       x=  -1.1071961051216581     
 ? Error
 ? inconsistent coordinates
 ? The problem occurs in opt_bmat

 GLOBAL ERROR fehler on processor   0                                         
