
 Nodes     nprocs
 sv1-c724     6
 GA implementation: MPI file
 GA implementation (serial work in mppx): MPI file

 Using customized tuning parameters: mindgm=1; mindgv=20; mindgc=4; mindgr=1; noblas=0; minvec=7
 default implementation of scratch files=sf


 Variables initialized (1025), CPU time= 0.00 sec
 Commands initialized (840), CPU time= 0.01 sec, 684 directives.
 Default parameters read. Elapsed time= 0.08 sec

 Checking input...
 Passed
1


                                         ***  PROGRAM SYSTEM MOLPRO  ***
                                       Copyright, TTI GmbH Stuttgart, 2015
                                    Version 2022.3 linked Wed Nov 30 12:40:34 2022


 **********************************************************************************************************************************
 LABEL *
  (6 PROC) 64 bit mpp version                                                            DATE: 25-Aug-25          TIME: 16:27:16
 **********************************************************************************************************************************

 SHA1:             e31ec9a5ea85254ab76f59d122cbdd51c71cf98b
 **********************************************************************************************************************************

 Memory per process:       200 MW
 Total memory per node:   1200 MW

 GA preallocation disabled
 GA check disabled

 Variable memory set to 200.0 MW


 THRESHOLDS:

 ZERO    =  1.00D-12  ONEINT  =  1.00D-12  TWOINT  =  1.00D-14  PREFAC  =  1.00D-16  XXXXXX  =  1.00D-09  EORDER  =  1.00D-04
 ENERGY  =  0.00D+00  ETEST   =  0.00D+00  EDENS   =  0.00D+00  THRDEDEF=  1.00D-06  GRADIENT=  1.00D-05  STEP    =  1.00D-03
 ORBITAL =  1.00D-05  CIVEC   =  1.00D-05  COEFF   =  1.00D-04  PRINTCI =  5.00D-02  PUNCHCI =  9.90D+01  OPTGRAD =  1.00D-07
 OPTENERG=  1.00D-06  OPTSTEP =  3.00D-04  THRGRAD =  1.00D-10  COMPRESS=  1.00D-11  VARMIN  =  1.00D-07  VARMAX  =  1.00D-03
 THRDOUB =  0.00D+00  THRDIV  =  1.00D-05  THRRED  =  1.00D-07  THRPSP  =  1.00D+00  THRDC   =  1.00D-10  THRCS   =  1.00D-10
 THRNRM  =  1.00D-08  THREQ   =  0.00D+00  THRDE   =  1.00D+00  THRREF  =  1.00D-05  SPARFAC =  1.00D+00  THRDLP  =  1.00D-07
 THRDIA  =  1.00D-10  THRDLS  =  1.00D-07  THRGPS  =  0.00D+00  THRKEX  =  0.00D+00  THRDIS  =  2.00D-01  THRVAR  =  1.00D-10
 THRLOC  =  1.00D-06  THRGAP  =  1.00D-06  THRLOCT = -1.00D+00  THRGAPT = -1.00D+00  THRORB  =  1.00D-06  THRMLTP =  0.00D+00
 THRCPQCI=  1.00D-10  KEXTA   =  0.00D+00  THRCOARS=  0.00D+00  SYMTOL  =  1.00D-06  GRADTOL =  1.00D-06  THROVL  =  1.00D-08
 THRORTH =  1.00D-08  THRDLOVL= -1.00D+00  GRID    =  1.00D-06  GRIDMAX =  1.00D-03  DTMAX   =  0.00D+00  THROCCDE=  1.00D-01
 THROCCDE=  1.00D-01  THRPRINT=  2.50D-01

 ZCENTRE=MASS


 Geometry recognized as XYZ



 Using masses of most abundant isotopes

 **********************************************************************************************************************************
 SETTING BASIS          =    6-311G(D,P)


 Recomputing integrals since basis changed


 Using spherical harmonics

 Library entry H      S 6-311G               selected for orbital group  1
 Library entry H      P 6-311G**             selected for orbital group  1
 Library entry C      S 6-311G               selected for orbital group  2
 Library entry C      P 6-311G               selected for orbital group  2
 Library entry C      D 6-311G*              selected for orbital group  2
 Library entry O      S 6-311G               selected for orbital group  4
 Library entry O      P 6-311G               selected for orbital group  4
 Library entry O      D 6-311G*              selected for orbital group  4


 PROGRAM * SEWARD (Integral evaluation for generally contracted gaussian basis sets)     Author: Roland Lindh, 1990

 Geometry written to block  1 of record 700

 Orientation using atomic masses
 Molecule type: Asymmetric top
 Rotational constants:      34.5314307     39.1735485    291.4011920 GHz

 Point group  C1



 ATOMIC COORDINATES

 NR  ATOM    CHARGE       X              Y              Z

   1  H       1.00    0.000032837    1.752993686    2.223753309
   2  C       6.00   -0.000008153   -0.000009225    1.137846386
   3  H       1.00    0.000032841   -1.752782873    2.224014785
   4  O       8.00    0.000001978   -0.000006362   -1.133906256

 Bond lengths in Bohr (Angstrom)

 1-2  2.062089487  2-3  2.062032312  2-4  2.271752643
     ( 1.091210763)     ( 1.091180508)     ( 1.202159727)

 Bond angles

  1-2-3  116.43774202   1-2-4  121.77629125   3-2-4  121.78596667

 NUCLEAR CHARGE:                   16
 NUMBER OF PRIMITIVE AOS:          80
 NUMBER OF SYMMETRY AOS:           78
 NUMBER OF CONTRACTIONS:           48   (   48A   )
 NUMBER OF INNER CORE ORBITALS:     0   (    0A   )
 NUMBER OF OUTER CORE ORBITALS:     2   (    2A   )
 NUMBER OF VALENCE ORBITALS:       10   (   10A   )


 NUCLEAR REPULSION ENERGY   31.45782126


 Eigenvalues of metric

         1 0.134E-01 0.224E-01 0.271E-01 0.326E-01 0.462E-01 0.693E-01 0.975E-01 0.108E+00


 Contracted 2-electron integrals neglected if value below      1.0D-14
 AO integral compression algorithm  1   Integral accuracy      1.0D-14

     5.767 MB (compressed) written to integral file ( 77.0%)

     Node minimum: 0.786 MB, node maximum: 1.049 MB


 NUMBER OF SORTED TWO-ELECTRON INTEGRALS:     115444.     BUFFER LENGTH:  32768
 NUMBER OF SEGMENTS:   1  SEGMENT LENGTH:     115444      RECORD LENGTH: 524288

 Memory used in sort:       0.67 MW

 SORT1 READ      943706. AND WROTE      108761. INTEGRALS IN      1 RECORDS. CPU TIME:     0.01 SEC, REAL TIME:     0.02 SEC
 SORT2 READ      653653. AND WROTE      692076. INTEGRALS IN     24 RECORDS. CPU TIME:     0.01 SEC, REAL TIME:     0.00 SEC

 Node minimum:      114856.  Node maximum:      115836. integrals

 OPERATOR DM      FOR CENTER  0  COORDINATES:    0.000000    0.000000    0.000000


 **********************************************************************************************************************************
 DATASETS  * FILE   NREC   LENGTH (MB)   RECORD NAMES
              1      18       28.69       500      610      700      900      950      970     1000      129      960     1100
                                          VAR    BASINP    GEOM    SYMINP    ZMAT    AOBASIS   BASIS     P2S    ABASIS      S
                                         1400     1410     1200     1210     1080     1600     1650     1700
                                           T        V       H0       H01     AOSYM     SMH    MOLCAS    OPER

 PROGRAMS   *        TOTAL       INT
 CPU TIMES  *         0.38      0.24
 REAL TIME  *         0.47 SEC
 DISK USED  *        29.00 MB (local),      201.73 MB (total)
 GA USED    *         0.00 MB       (max)       0.00 MB       (current)
 **********************************************************************************************************************************


 Program * Restricted Hartree-Fock

 Orbital guess generated from atomic densities.

 Initial occupancy:   8

 NELEC=   16   SYM=1   MS2= 0   THRE=1.0D-08   THRD=1.0D-06   THRG=1.0D-06  HFMA2=F  DIIS_START=2   DIIS_MAX=10   DIIS_INCORE=F

 Level shifts:    0.00 (CLOSED)    0.00 (OPEN)    0.30 (GAP_MIN)

 ITER           ETOT              DE          GRAD        DDIFF     DIIS  NEXP   TIME(IT)  TIME(TOT)  DIAG
   1     -113.84652723    -113.84652723     0.00D+00     0.69D-01     0     0       0.02      0.05    start
   2     -113.87028353      -0.02375630     0.14D-01     0.11D-01     1     0       0.02      0.07    diag
   3     -113.89767970      -0.02739618     0.11D-01     0.50D-02     2     0       0.01      0.08    diag
   4     -113.89809843      -0.00041873     0.88D-03     0.75D-03     3     0       0.03      0.11    diag
   5     -113.89815579      -0.00005737     0.30D-03     0.31D-03     4     0       0.02      0.13    diag
   6     -113.89817017      -0.00001438     0.12D-03     0.17D-03     5     0       0.01      0.14    diag
   7     -113.89817199      -0.00000182     0.50D-04     0.74D-04     6     0       0.01      0.15    diag
   8     -113.89817204      -0.00000004     0.83D-05     0.12D-04     7     0       0.02      0.17    fixocc
   9     -113.89817204      -0.00000000     0.99D-06     0.14D-05     8     0       0.02      0.19    diag
  10     -113.89817204      -0.00000000     0.21D-06     0.29D-06     9     0       0.04      0.23    diag/orth
  11     -113.89817204      -0.00000000     0.33D-07     0.37D-07     0     0       0.02      0.25    diag

 Final occupancy:   8

 !RHF STATE 1.1 Energy               -113.898172035766
  RHF One-electron energy            -217.716507143688
  RHF Two-electron energy              72.360513843779
  RHF Kinetic energy                  113.830162605413
  RHF Nuclear energy                   31.457821264144
  RHF Virial quotient                  -1.000597464053

 !RHF STATE 1.1 Dipole moment           0.00000218    -0.00002406     1.09332563
 Dipole moment /Debye                   0.00000553    -0.00006116     2.77895656

 Orbital energies:

           1.1          2.1          3.1          4.1          5.1          6.1          7.1          8.1          9.1         10.1
    -20.568664   -11.335972    -1.405435    -0.870188    -0.695173    -0.649784    -0.532932    -0.439592     0.130232     0.158459


 HOMO      8.1    -0.439592 =     -11.9619eV
 LUMO      9.1     0.130232 =       3.5438eV
 LUMO-HOMO         0.569824 =      15.5057eV

 Orbitals saved in record  2100.2


 **********************************************************************************************************************************
 DATASETS  * FILE   NREC   LENGTH (MB)   RECORD NAMES
              1      18       28.69       500      610      700      900      950      970     1000      129      960     1100
                                          VAR    BASINP    GEOM    SYMINP    ZMAT    AOBASIS   BASIS     P2S    ABASIS      S
                                         1400     1410     1200     1210     1080     1600     1650     1700
                                           T        V       H0       H01     AOSYM     SMH    MOLCAS    OPER

              2       4        0.43       700     1000      520     2100
                                         GEOM     BASIS   MCVARS     RHF

 PROGRAMS   *        TOTAL    HF-SCF       INT
 CPU TIMES  *         0.64      0.26      0.24
 REAL TIME  *         0.62 SEC
 DISK USED  *        29.33 MB (local),      203.71 MB (total)
 GA USED    *         0.00 MB       (max)       0.00 MB       (current)
 **********************************************************************************************************************************


 PROGRAM * OPT (Geometry optimization)     Authors: F. Eckert and H.-J. Werner


 BFGS update of hessian

 Running default procedure: HF-SCF000

 Geometry optimization using default procedure for command HF-SCF

 Geometry written to block  1 of record 700

 PROGRAM * ALASKA (Gradient of the energy)     Author: R. Lindh

 Orbitals from record         2100.2

 Number of closed-shell orbitals:  8 (  8 )
 Number of occupied orbitals:      8 (  8 )

 Number of electrons= 16     Singlet     Space symmetry=1      Wavefunction type: CLOSED


 SCF GRADIENT FOR STATE 1.1

 Atom          dE/dx               dE/dy               dE/dz

   1         0.000002187        -0.000682040        -0.000053945
   2        -0.000006659        -0.000038893         0.043227201
   3         0.000002187         0.000705703        -0.000049048
   4         0.000002285         0.000015230        -0.043124207

 Nuclear force contribution to virial =         0.095423122

 Entering BMAT geometry-optimization, modelhes=F
 Reading points 1 to 1 from record 700.2,  wavefunction type=HF-SCF000

 torquex=-.2688D-10  torquey=0.1450D-09  torquez=-.6075D-12 total=    0.0000

 Entering opt_bmat, project=F  hessinp=F  newcoord=T  MAXIT=100  maxitq=40

 Number of contracted internal coordinates:   6
 Smallest nonzero eigenvalue of G:  0.100D+01
 No hessian update for point  1
 Optimization method: RF
 bmat iter=  1  nc=   6  grad=     0.35536901  step=     0.02106200  stepmax=     0.30000000  scale=     1.00000000  de=-0.003718484287
 it=  1  dnq=  0.211D-01  dnx=  0.184D-01
 it=  2  dnq=  0.238D-05  dnx=  0.116D-05
 it=  3  dnq=  0.121D-07  dnx=  0.618D-08
 it=  4  dnq=  0.129D-09  dnx=  0.653D-10
 back transformation to cartesian coordinates converged in  4 iterations
 Bmat iter=  1  dq=   0.02106200  dx=   0.01842372  rms=   0.00531847  de=  -0.0008529133  enext=-113.8990249491

 Optimization point 1

 Variable                      Last           Current        Next           Gradient       Hessian

 E(HF-SCF000) / Hartree      0.00000000  -113.89817204  -113.89902495
 GX1 / ANGSTROM              0.00000000     0.00001738     0.00001604     0.00000413     3.57106483
 GY1 / ANGSTROM              0.00000000     0.92764431     0.92897915    -0.00128887     3.57106483
 GZ1 / ANGSTROM              0.00000000     1.17675957     1.17135447    -0.00010194     3.57106483
 GX2 / ANGSTROM              0.00000000    -0.00000431    -0.00000048    -0.00001258     3.57106483
 GY2 / ANGSTROM              0.00000000    -0.00000488     0.00002250    -0.00007350     3.57106483
 GZ2 / ANGSTROM              0.00000000     0.60212238     0.59710107     0.08168757     3.57106483
 GX3 / ANGSTROM              0.00000000     0.00001738     0.00001604     0.00000413     3.57106483
 GY3 / ANGSTROM              0.00000000    -0.92753275    -0.92886687     0.00133358     3.57106483
 GZ3 / ANGSTROM              0.00000000     1.17689794     1.17145548    -0.00009269     3.57106483
 GX4 / ANGSTROM              0.00000000     0.00000105    -0.00000011     0.00000432     3.57106483
 GY4 / ANGSTROM              0.00000000    -0.00000337    -0.00003147     0.00002878     3.57106483
 GZ4 / ANGSTROM              0.00000000    -0.60003735    -0.58416848    -0.08149294     3.57106483
 Convergence:                0.00000000  (line search)     0.03481578     0.06106765  (total)

 Geometry written to block  2 of record 700


 Recomputing integrals since geometry changed


 PROGRAM * SEWARD (Integral evaluation for generally contracted gaussian basis sets)     Author: Roland Lindh, 1990

 Geometry written to block  2 of record 700


 Point group  C1



 ATOMIC COORDINATES

 NR  ATOM    CHARGE       X              Y              Z

   1  H       1.00    0.000030306    1.755516176    2.213539145
   2  C       6.00   -0.000000909    0.000042525    1.128357488
   3  H       1.00    0.000030311   -1.755303999    2.213730024
   4  O       8.00   -0.000000205   -0.000059477   -1.103918433

 Bond lengths in Bohr (Angstrom)

 1-2  2.063808850  2-3  2.063801096  2-4  2.232275924
     ( 1.092120611)     ( 1.092116508)     ( 1.181269547)

 Bond angles

  1-2-3  116.54738650   1-2-4  121.72574316   3-2-4  121.72687031

 NUCLEAR CHARGE:                   16
 NUMBER OF PRIMITIVE AOS:          80
 NUMBER OF SYMMETRY AOS:           78
 NUMBER OF CONTRACTIONS:           48   (   48A   )
 NUMBER OF INNER CORE ORBITALS:     0   (    0A   )
 NUMBER OF OUTER CORE ORBITALS:     2   (    2A   )
 NUMBER OF VALENCE ORBITALS:       10   (   10A   )


 NUCLEAR REPULSION ENERGY   31.86491534


 Eigenvalues of metric

         1 0.127E-01 0.223E-01 0.268E-01 0.323E-01 0.460E-01 0.663E-01 0.975E-01 0.108E+00


 Contracted 2-electron integrals neglected if value below      1.0D-14
 AO integral compression algorithm  1   Integral accuracy      1.0D-14

     6.029 MB (compressed) written to integral file ( 73.7%)

     Node minimum: 0.524 MB, node maximum: 1.311 MB


 NUMBER OF SORTED TWO-ELECTRON INTEGRALS:     115444.     BUFFER LENGTH:  32768
 NUMBER OF SEGMENTS:   1  SEGMENT LENGTH:     115444      RECORD LENGTH: 524288

 Memory used in sort:       0.67 MW

 SORT1 READ      943706. AND WROTE      109451. INTEGRALS IN      1 RECORDS. CPU TIME:     0.01 SEC, REAL TIME:     0.01 SEC
 SORT2 READ      657509. AND WROTE      692076. INTEGRALS IN     12 RECORDS. CPU TIME:     0.00 SEC, REAL TIME:     0.01 SEC

 Node minimum:      114856.  Node maximum:      115836. integrals

 OPERATOR DM      FOR CENTER  0  COORDINATES:    0.000000    0.000000    0.000000

 Program * Restricted Hartree-Fock

 Molecular orbitals read from record     2100.2  Type=RHF/CANONICAL

 NELEC=   16   SYM=1   MS2= 0   THRE=1.0D-08   THRD=1.0D-06   THRG=1.0D-06  HFMA2=F  DIIS_START=2   DIIS_MAX=10   DIIS_INCORE=F

 Level shifts:    0.00 (CLOSED)    0.00 (OPEN)    0.30 (GAP_MIN)

 ITER           ETOT              DE          GRAD        DDIFF     DIIS  NEXP   TIME(IT)  TIME(TOT)  DIAG
   1     -113.89876236    -113.89876236     0.00D+00     0.69D-01     0     0       0.02      0.06    start
   2     -113.89908680      -0.00032444     0.11D-02     0.57D-03     1     0       0.01      0.07    diag
   3     -113.89911598      -0.00002918     0.30D-03     0.24D-03     2     0       0.02      0.09    diag
   4     -113.89912102      -0.00000503     0.13D-03     0.87D-04     3     0       0.02      0.11    diag
   5     -113.89912169      -0.00000068     0.44D-04     0.35D-04     4     0       0.02      0.13    diag
   6     -113.89912176      -0.00000006     0.11D-04     0.15D-04     5     0       0.02      0.15    diag
   7     -113.89912176      -0.00000000     0.19D-05     0.35D-05     6     0       0.01      0.16    diag
   8     -113.89912176      -0.00000000     0.29D-06     0.32D-06     7     0       0.02      0.18    fixocc
   9     -113.89912176      -0.00000000     0.51D-07     0.56D-07     0     0       0.02      0.20    diag

 Final occupancy:   8

 !RHF STATE 1.1 Energy               -113.899121760122
  RHF One-electron energy            -218.492078175525
  RHF Two-electron energy              72.728041080126
  RHF Kinetic energy                  113.920204608744
  RHF Nuclear energy                   31.864915335276
  RHF Virial quotient                  -0.999814933192

 !RHF STATE 1.1 Dipole moment           0.00000416     0.00004474     1.04898253
 Dipole moment /Debye                   0.00001058     0.00011372     2.66624765

 Orbital energies:

           1.1          2.1          3.1          4.1          5.1          6.1          7.1          8.1          9.1         10.1
    -20.567232   -11.332048    -1.419405    -0.865996    -0.699633    -0.655184    -0.542088    -0.436414     0.136755     0.159603


 HOMO      8.1    -0.436414 =     -11.8754eV
 LUMO      9.1     0.136755 =       3.7213eV
 LUMO-HOMO         0.573169 =      15.5967eV

 Orbitals saved in record  2100.2


 **********************************************************************************************************************************
 DATASETS  * FILE   NREC   LENGTH (MB)   RECORD NAMES
              1      18       28.69       500      610      700      900      950      970     1000      129      960     1100
                                          VAR    BASINP    GEOM    SYMINP    ZMAT    AOBASIS   BASIS     P2S    ABASIS      S
                                         1400     1410     1200     1210     1080     1600     1650     1700
                                           T        V       H0       H01     AOSYM     SMH    MOLCAS    OPER

              2       4        0.43       700     1000      520     2100
                                         GEOM     BASIS   MCVARS     RHF

              3       2        0.05      1000     8000
                                         BASIS

 PROGRAMS   *        TOTAL    HF-SCF    HF-SCF       INT
 CPU TIMES  *         1.65      0.42      0.26      0.24
 REAL TIME  *         1.29 SEC
 DISK USED  *        29.33 MB (local),      203.71 MB (total)
 SF USED    *         0.02 MB
 GA USED    *         0.00 MB       (max)       0.00 MB       (current)
 **********************************************************************************************************************************

 ITER.   ENERGY(OLD)    ENERGY(NEW)      DE          GRADMAX     GRADNORM    GRADRMS     STEPMAX     STEPLEN     STEPRMS   CPU-time
   1  -113.89817204  -113.89912176    -0.00094972  0.04322720  0.06106765  0.01762871  0.02998782  0.03481578  0.01740789      1.00

 Current geometry (xyz format, in Angstrom)


 **********************************************************************************************************************************

 PROGRAM * ALASKA (Gradient of the energy)     Author: R. Lindh

 Orbitals from record         2100.2

 Number of closed-shell orbitals:  8 (  8 )
 Number of occupied orbitals:      8 (  8 )

 Number of electrons= 16     Singlet     Space symmetry=1      Wavefunction type: CLOSED


 SCF GRADIENT FOR STATE 1.1

 Atom          dE/dx               dE/dy               dE/dz

   1         0.000001509        -0.000641647        -0.001718391
   2        -0.000004534        -0.000004524         0.007457759
   3         0.000001509         0.000644508        -0.001718008
   4         0.000001516         0.000001662        -0.004021359

 Nuclear force contribution to virial =         0.002989608

 Entering BMAT geometry-optimization, modelhes=F
 Reading points 1 to 2 from record 700.2,  wavefunction type=HF-SCF000

 torquex=-.4336D-09  torquey=-.3185D-08  torquez=0.3947D-11 total=    0.0000

 Entering opt_bmat, project=F  hessinp=F  newcoord=F  MAXIT=100  maxitq=40
 Smallest nonzero eigenvalue of G:  0.100D+01
 BFGS update of hessian using  1 points
 bmat iter=  2  nc=   6  grad=     0.03809697  step=     0.01001131  stepmax=     0.30000000  scale=     1.00000000  de=-0.000108599724
 it=  1  dnq=  0.100D-01  dnx=  0.387D-02
 it=  2  dnq=  0.226D-04  dnx=  0.160D-04
 it=  3  dnq=  0.498D-07  dnx=  0.416D-07
 it=  4  dnq=  0.314D-09  dnx=  0.172D-09
 back transformation to cartesian coordinates converged in  4 iterations
 Bmat iter=  2  dq=   0.01001131  dx=   0.00387843  rms=   0.00111961  de=  -0.0000249097  enext=-113.8991466698

 Optimization point 2

 Variable                      Last           Current        Next           Gradient       Hessian

 E(HF-SCF000) / Hartree   -113.89817204  -113.89912176  -113.89914667
 GX1 / ANGSTROM              0.00001738     0.00001604     0.00001585     0.00000285     3.57106483
 GY1 / ANGSTROM              0.92764431     0.92897915     0.92889856    -0.00121254     3.57106483
 GZ1 / ANGSTROM              1.17675957     1.17135447     1.17307160    -0.00324729     3.57106483
 GX2 / ANGSTROM             -0.00000431    -0.00000048     0.00000013    -0.00000857     3.57106483
 GY2 / ANGSTROM             -0.00000488     0.00002250     0.00002659    -0.00000855     3.57106483
 GZ2 / ANGSTROM              0.60212238     0.59710107     0.59410758     0.01409312     3.57106483
 GX3 / ANGSTROM              0.00001738     0.00001604     0.00001585     0.00000285     3.57106483
 GY3 / ANGSTROM             -0.92753275    -0.92886687    -0.92878612     0.00121794     3.57106483
 GZ3 / ANGSTROM              1.17689794     1.17145548     1.17316724    -0.00324657     3.57106483
 GX4 / ANGSTROM              0.00000105    -0.00000011    -0.00000034     0.00000286     3.57106483
 GY4 / ANGSTROM             -0.00000337    -0.00003147    -0.00003573     0.00000314     3.57106483
 GZ4 / ANGSTROM             -0.60003735    -0.58416848    -0.58460388    -0.00759927     3.57106483
 Convergence:                0.00000000  (line search)     0.00732918     0.00886121  (total)

 Geometry written to block  3 of record 700


 Recomputing integrals since geometry changed


 PROGRAM * SEWARD (Integral evaluation for generally contracted gaussian basis sets)     Author: Roland Lindh, 1990

 Geometry written to block  3 of record 700


 Point group  C1



 ATOMIC COORDINATES

 NR  ATOM    CHARGE       X              Y              Z

   1  H       1.00    0.000029947    1.755363882    2.216784052
   2  C       6.00    0.000000250    0.000050249    1.122700620
   3  H       1.00    0.000029951   -1.755151391    2.216964783
   4  O       8.00   -0.000000645   -0.000067514   -1.104741231

 Bond lengths in Bohr (Angstrom)

 1-2  2.068367595  2-3  2.068368163  2-4  2.227441854
     ( 1.094532995)     ( 1.094533296)     ( 1.178711468)

 Bond angles

  1-2-3  116.12370303   1-2-4  121.93823280   3-2-4  121.93806415

 NUCLEAR CHARGE:                   16
 NUMBER OF PRIMITIVE AOS:          80
 NUMBER OF SYMMETRY AOS:           78
 NUMBER OF CONTRACTIONS:           48   (   48A   )
 NUMBER OF INNER CORE ORBITALS:     0   (    0A   )
 NUMBER OF OUTER CORE ORBITALS:     2   (    2A   )
 NUMBER OF VALENCE ORBITALS:       10   (   10A   )


 NUCLEAR REPULSION ENERGY   31.89478468


 Eigenvalues of metric

         1 0.126E-01 0.225E-01 0.268E-01 0.325E-01 0.460E-01 0.659E-01 0.974E-01 0.108E+00


 Contracted 2-electron integrals neglected if value below      1.0D-14
 AO integral compression algorithm  1   Integral accuracy      1.0D-14

     6.029 MB (compressed) written to integral file ( 73.8%)

     Node minimum: 0.786 MB, node maximum: 1.311 MB


 NUMBER OF SORTED TWO-ELECTRON INTEGRALS:     115444.     BUFFER LENGTH:  32768
 NUMBER OF SEGMENTS:   1  SEGMENT LENGTH:     115444      RECORD LENGTH: 524288

 Memory used in sort:       0.67 MW

 SORT1 READ      943706. AND WROTE      109561. INTEGRALS IN      1 RECORDS. CPU TIME:     0.02 SEC, REAL TIME:     0.02 SEC
 SORT2 READ      658237. AND WROTE      692076. INTEGRALS IN     30 RECORDS. CPU TIME:     0.01 SEC, REAL TIME:     0.01 SEC

 Node minimum:      114856.  Node maximum:      115836. integrals

 OPERATOR DM      FOR CENTER  0  COORDINATES:    0.000000    0.000000    0.000000

 Program * Restricted Hartree-Fock

 Molecular orbitals read from record     2100.2  Type=RHF/CANONICAL

 NELEC=   16   SYM=1   MS2= 0   THRE=1.0D-08   THRD=1.0D-07   THRG=1.0D-07  HFMA2=F  DIIS_START=2   DIIS_MAX=10   DIIS_INCORE=F

 Level shifts:    0.00 (CLOSED)    0.00 (OPEN)    0.30 (GAP_MIN)

 ITER           ETOT              DE          GRAD        DDIFF     DIIS  NEXP   TIME(IT)  TIME(TOT)  DIAG
   1     -113.89913967    -113.89913967     0.00D+00     0.69D-01     0     0       0.03      0.07    start
   2     -113.89914953      -0.00000986     0.18D-03     0.10D-03     1     0       0.02      0.09    diag
   3     -113.89915052      -0.00000099     0.57D-04     0.43D-04     2     0       0.01      0.10    diag
   4     -113.89915081      -0.00000029     0.32D-04     0.18D-04     3     0       0.02      0.12    diag
   5     -113.89915084      -0.00000002     0.66D-05     0.75D-05     4     0       0.01      0.13    diag
   6     -113.89915084      -0.00000000     0.13D-05     0.23D-05     5     0       0.02      0.15    diag
   7     -113.89915084      -0.00000000     0.45D-06     0.79D-06     6     0       0.01      0.16    diag
   8     -113.89915084      -0.00000000     0.15D-06     0.26D-06     7     0       0.02      0.18    fixocc
   9     -113.89915084      -0.00000000     0.41D-07     0.57D-07     8     0       0.02      0.20    diag
  10     -113.89915084       0.00000000     0.54D-08     0.44D-08     0     0       0.04      0.24    diag/orth

 Final occupancy:   8

 !RHF STATE 1.1 Energy               -113.899150837615
  RHF One-electron energy            -218.545895246182
  RHF Two-electron energy              72.751959727988
  RHF Kinetic energy                  113.923963278250
  RHF Nuclear energy                   31.894784680580
  RHF Virial quotient                  -0.999782201743

 !RHF STATE 1.1 Dipole moment           0.00000452     0.00005551     1.04293802
 Dipole moment /Debye                   0.00001149     0.00014109     2.65088404

 Orbital energies:

           1.1          2.1          3.1          4.1          5.1          6.1          7.1          8.1          9.1         10.1
    -20.567456   -11.332279    -1.421341    -0.865155    -0.699194    -0.656232    -0.543500    -0.435831     0.137417     0.159447


 HOMO      8.1    -0.435831 =     -11.8596eV
 LUMO      9.1     0.137417 =       3.7393eV
 LUMO-HOMO         0.573248 =      15.5989eV

 Orbitals saved in record  2100.2


 **********************************************************************************************************************************
 DATASETS  * FILE   NREC   LENGTH (MB)   RECORD NAMES
              1      18       28.69       500      610      700      900      950      970     1000      129      960     1100
                                          VAR    BASINP    GEOM    SYMINP    ZMAT    AOBASIS   BASIS     P2S    ABASIS      S
                                         1400     1410     1200     1210     1080     1600     1650     1700
                                           T        V       H0       H01     AOSYM     SMH    MOLCAS    OPER

              2       4        0.43       700     1000      520     2100
                                         GEOM     BASIS   MCVARS     RHF

              3       2        0.05      1000     8000
                                         BASIS

 PROGRAMS   *        TOTAL    HF-SCF    HF-SCF       INT
 CPU TIMES  *         2.67      0.45      0.26      0.24
 REAL TIME  *         1.96 SEC
 DISK USED  *        29.33 MB (local),      203.72 MB (total)
 SF USED    *         0.02 MB
 GA USED    *         0.00 MB       (max)       0.00 MB       (current)
 **********************************************************************************************************************************
   2  -113.89912176  -113.89915084    -0.00002908  0.00745776  0.00886121  0.00255801  0.00565687  0.00732918  0.00366459      2.02

 Current geometry (xyz format, in Angstrom)


 **********************************************************************************************************************************

 PROGRAM * ALASKA (Gradient of the energy)     Author: R. Lindh

 Orbitals from record         2100.2

 Number of closed-shell orbitals:  8 (  8 )
 Number of occupied orbitals:      8 (  8 )

 Number of electrons= 16     Singlet     Space symmetry=1      Wavefunction type: CLOSED


 SCF GRADIENT FOR STATE 1.1

 Atom          dE/dx               dE/dy               dE/dz

   1         0.000001416         0.000192332        -0.000539934
   2        -0.000004237         0.000000603         0.000795160
   3         0.000001416        -0.000192669        -0.000540095
   4         0.000001405        -0.000000266         0.000284869

 Nuclear force contribution to virial =        -0.001140491

 Entering BMAT geometry-optimization, modelhes=F
 Reading points 1 to 3 from record 700.2,  wavefunction type=HF-SCF000

 torquex=0.6013D-10  torquey=-.4082D-10  torquez=-.1860D-12 total=    0.0000

 Entering opt_bmat, project=F  hessinp=F  newcoord=F  MAXIT=100  maxitq=40
 Smallest nonzero eigenvalue of G:  0.100D+01
 BFGS update of hessian using  2 points
 bmat iter=  3  nc=   6  grad=     0.00495436  step=     0.00554050  stepmax=     0.30000000  scale=     1.00000000  de=-0.000011581043
 it=  1  dnq=  0.554D-02  dnx=  0.262D-02
 it=  2  dnq=  0.437D-05  dnx=  0.404D-05
 it=  3  dnq=  0.135D-07  dnx=  0.641D-08
 it=  4  dnq=  0.238D-10  dnx=  0.209D-10
 back transformation to cartesian coordinates converged in  4 iterations
 Bmat iter=  3  dq=   0.00554050  dx=   0.00262010  rms=   0.00075636  de=  -0.0000026564  enext=-113.8991534940

 Optimization point 3

 Variable                      Last           Current        Next           Gradient       Hessian

 E(HF-SCF000) / Hartree   -113.89912176  -113.89915084  -113.89915349
 GX1 / ANGSTROM              0.00001604     0.00001585     0.00001585     0.00000268     3.57106483
 GY1 / ANGSTROM              0.92897915     0.92889856     0.92791609     0.00036346     3.57106483
 GZ1 / ANGSTROM              1.17135447     1.17307160     1.17418098    -0.00102033     3.57106483
 GX2 / ANGSTROM             -0.00000048     0.00000013     0.00000016    -0.00000801     3.57106483
 GY2 / ANGSTROM              0.00002250     0.00002659     0.00002646     0.00000114     3.57106483
 GZ2 / ANGSTROM              0.59710107     0.59410758     0.59292600     0.00150263     3.57106483
 GX3 / ANGSTROM              0.00001604     0.00001585     0.00001585     0.00000268     3.57106483
 GY3 / ANGSTROM             -0.92886687    -0.92878612    -0.92780369    -0.00036409     3.57106483
 GZ3 / ANGSTROM              1.17145548     1.17316724     1.17427689    -0.00102063     3.57106483
 GX4 / ANGSTROM             -0.00000011    -0.00000034    -0.00000037     0.00000266     3.57106483
 GY4 / ANGSTROM             -0.00003147    -0.00003573    -0.00003556    -0.00000050     3.57106483
 GZ4 / ANGSTROM             -0.58416848    -0.58460388    -0.58564133     0.00053832     3.57106483
 Convergence:                0.00000000  (line search)     0.00495127     0.00117081  (total)

 Geometry written to block  4 of record 700


 Recomputing integrals since geometry changed


 PROGRAM * SEWARD (Integral evaluation for generally contracted gaussian basis sets)     Author: Roland Lindh, 1990

 Geometry written to block  4 of record 700


 Point group  C1



 ATOMIC COORDINATES

 NR  ATOM    CHARGE       X              Y              Z

   1  H       1.00    0.000029949    1.753507286    2.218880478
   2  C       6.00    0.000000300    0.000050002    1.120467745
   3  H       1.00    0.000029953   -1.753294863    2.219061724
   4  O       8.00   -0.000000699   -0.000067199   -1.106701723

 Bond lengths in Bohr (Angstrom)

 1-2  2.069087474  2-3  2.069088434  2-4  2.227169472
     ( 1.094913939)     ( 1.094914447)     ( 1.178567329)

 Bond angles

  1-2-3  115.86582597   1-2-4  122.06714915   3-2-4  122.06702485

 NUCLEAR CHARGE:                   16
 NUMBER OF PRIMITIVE AOS:          80
 NUMBER OF SYMMETRY AOS:           78
 NUMBER OF CONTRACTIONS:           48   (   48A   )
 NUMBER OF INNER CORE ORBITALS:     0   (    0A   )
 NUMBER OF OUTER CORE ORBITALS:     2   (    2A   )
 NUMBER OF VALENCE ORBITALS:       10   (   10A   )


 NUCLEAR REPULSION ENERGY   31.89261992


 Eigenvalues of metric

         1 0.126E-01 0.226E-01 0.268E-01 0.326E-01 0.460E-01 0.659E-01 0.974E-01 0.108E+00


 Contracted 2-electron integrals neglected if value below      1.0D-14
 AO integral compression algorithm  1   Integral accuracy      1.0D-14

     6.029 MB (compressed) written to integral file ( 73.8%)

     Node minimum: 0.786 MB, node maximum: 1.311 MB


 NUMBER OF SORTED TWO-ELECTRON INTEGRALS:     115444.     BUFFER LENGTH:  32768
 NUMBER OF SEGMENTS:   1  SEGMENT LENGTH:     115444      RECORD LENGTH: 524288

 Memory used in sort:       0.67 MW

 SORT1 READ      943706. AND WROTE      109620. INTEGRALS IN      1 RECORDS. CPU TIME:     0.01 SEC, REAL TIME:     0.01 SEC
 SORT2 READ      658514. AND WROTE      692076. INTEGRALS IN     30 RECORDS. CPU TIME:     0.00 SEC, REAL TIME:     0.01 SEC

 Node minimum:      114856.  Node maximum:      115836. integrals

 OPERATOR DM      FOR CENTER  0  COORDINATES:    0.000000    0.000000    0.000000

 Program * Restricted Hartree-Fock

 Molecular orbitals read from record     2100.2  Type=RHF/CANONICAL

 NELEC=   16   SYM=1   MS2= 0   THRE=1.0D-08   THRD=1.0D-07   THRG=1.0D-07  HFMA2=F  DIIS_START=2   DIIS_MAX=10   DIIS_INCORE=F

 Level shifts:    0.00 (CLOSED)    0.00 (OPEN)    0.30 (GAP_MIN)

 ITER           ETOT              DE          GRAD        DDIFF     DIIS  NEXP   TIME(IT)  TIME(TOT)  DIAG
   1     -113.89915332    -113.89915332     0.00D+00     0.69D-01     0     0       0.02      0.07    start
   2     -113.89915385      -0.00000053     0.40D-04     0.26D-04     1     0       0.02      0.09    diag
   3     -113.89915390      -0.00000005     0.12D-04     0.95D-05     2     0       0.02      0.11    diag
   4     -113.89915391      -0.00000001     0.69D-05     0.37D-05     3     0       0.02      0.13    diag
   5     -113.89915391      -0.00000000     0.15D-05     0.20D-05     4     0       0.01      0.14    diag
   6     -113.89915391      -0.00000000     0.35D-06     0.44D-06     5     0       0.02      0.16    diag
   7     -113.89915391      -0.00000000     0.14D-06     0.22D-06     6     0       0.02      0.18    diag
   8     -113.89915391      -0.00000000     0.41D-07     0.68D-07     7     0       0.01      0.19    fixocc
   9     -113.89915391      -0.00000000     0.39D-08     0.52D-08     0     0       0.02      0.21    diag

 Final occupancy:   8

 !RHF STATE 1.1 Energy               -113.899153912804
  RHF One-electron energy            -218.540341459832
  RHF Two-electron energy              72.748567629026
  RHF Kinetic energy                  113.923030028999
  RHF Nuclear energy                   31.892619918002
  RHF Virial quotient                  -0.999790418880

 !RHF STATE 1.1 Dipole moment           0.00000454     0.00005526     1.04275982
 Dipole moment /Debye                   0.00001154     0.00014046     2.65043108

 Orbital energies:

           1.1          2.1          3.1          4.1          5.1          6.1          7.1          8.1          9.1         10.1
    -20.567616   -11.332433    -1.421504    -0.865251    -0.698850    -0.656507    -0.543667    -0.435775     0.137393     0.159368


 HOMO      8.1    -0.435775 =     -11.8580eV
 LUMO      9.1     0.137393 =       3.7386eV
 LUMO-HOMO         0.573168 =      15.5967eV

 Orbitals saved in record  2100.2


 **********************************************************************************************************************************
 DATASETS  * FILE   NREC   LENGTH (MB)   RECORD NAMES
              1      18       28.69       500      610      700      900      950      970     1000      129      960     1100
                                          VAR    BASINP    GEOM    SYMINP    ZMAT    AOBASIS   BASIS     P2S    ABASIS      S
                                         1400     1410     1200     1210     1080     1600     1650     1700
                                           T        V       H0       H01     AOSYM     SMH    MOLCAS    OPER

              2       4        0.43       700     1000      520     2100
                                         GEOM     BASIS   MCVARS     RHF

              3       2        0.05      1000     8000
                                         BASIS

 PROGRAMS   *        TOTAL    HF-SCF    HF-SCF       INT
 CPU TIMES  *         3.74      0.41      0.26      0.24
 REAL TIME  *         2.61 SEC
 DISK USED  *        29.33 MB (local),      203.72 MB (total)
 SF USED    *         0.02 MB
 GA USED    *         0.00 MB       (max)       0.00 MB       (current)
 **********************************************************************************************************************************
   3  -113.89915084  -113.89915391    -0.00000308  0.00079516  0.00117081  0.00033798  0.00223287  0.00495127  0.00247563      3.09

 Current geometry (xyz format, in Angstrom)


 **********************************************************************************************************************************

 PROGRAM * ALASKA (Gradient of the energy)     Author: R. Lindh

 Orbitals from record         2100.2

 Number of closed-shell orbitals:  8 (  8 )
 Number of occupied orbitals:      8 (  8 )

 Number of electrons= 16     Singlet     Space symmetry=1      Wavefunction type: CLOSED


 SCF GRADIENT FOR STATE 1.1

 Atom          dE/dx               dE/dy               dE/dz

   1         0.000001415         0.000105288        -0.000058368
   2        -0.000004228         0.000000558        -0.000109577
   3         0.000001415        -0.000105656        -0.000058388
   4         0.000001398        -0.000000190         0.000226334

 Nuclear force contribution to virial =        -0.000262472

 Entering BMAT geometry-optimization, modelhes=F
 Reading points 1 to 4 from record 700.2,  wavefunction type=HF-SCF000

 torquex=-.8691D-11  torquey=-.6118D-11  torquez=-.9200D-12 total=    0.0000

 Entering opt_bmat, project=F  hessinp=F  newcoord=F  MAXIT=100  maxitq=40
 Smallest nonzero eigenvalue of G:  0.100D+01
 BFGS update of hessian using  3 points
 bmat iter=  4  nc=   6  grad=     0.00213152  step=     0.00114184  stepmax=     0.30000000  scale=     1.00000000  de=-0.000000543417
 it=  1  dnq=  0.114D-02  dnx=  0.634D-03
 it=  2  dnq=  0.179D-06  dnx=  0.148D-06
 it=  3  dnq=  0.120D-09  dnx=  0.675D-10
 back transformation to cartesian coordinates converged in  3 iterations
 Bmat iter=  4  dq=   0.00114184  dx=   0.00063365  rms=   0.00018292  de=  -0.0000001246  enext=-113.8991540374

 Optimization point 4

 Variable                      Last           Current        Next           Gradient       Hessian

 E(HF-SCF000) / Hartree   -113.89915084  -113.89915391  -113.89915404
 GX1 / ANGSTROM              0.00001585     0.00001585     0.00001585     0.00000267     3.57106483
 GY1 / ANGSTROM              0.92889856     0.92791609     0.92759209     0.00019897     3.57106483
 GZ1 / ANGSTROM              1.17307160     1.17418098     1.17439792    -0.00011030     3.57106483
 GX2 / ANGSTROM              0.00000013     0.00000016     0.00000015    -0.00000799     3.57106483
 GY2 / ANGSTROM              0.00002659     0.00002646     0.00002608     0.00000105     3.57106483
 GZ2 / ANGSTROM              0.59410758     0.59292600     0.59274716    -0.00020707     3.57106483
 GX3 / ANGSTROM              0.00001585     0.00001585     0.00001585     0.00000267     3.57106483
 GY3 / ANGSTROM             -0.92878612    -0.92780369    -0.92747963    -0.00019966     3.57106483
 GZ3 / ANGSTROM              1.17316724     1.17427689     1.17449422    -0.00011034     3.57106483
 GX4 / ANGSTROM             -0.00000034    -0.00000037    -0.00000037     0.00000264     3.57106483
 GY4 / ANGSTROM             -0.00003573    -0.00003556    -0.00003523    -0.00000036     3.57106483
 GZ4 / ANGSTROM             -0.58460388    -0.58564133    -0.58589676     0.00042771     3.57106483
 Convergence:                0.00000000  (line search)     0.00119742     0.00030385  (total)

 Geometry written to block  5 of record 700


 Recomputing integrals since geometry changed


 PROGRAM * SEWARD (Integral evaluation for generally contracted gaussian basis sets)     Author: Roland Lindh, 1990

 Geometry written to block  5 of record 700


 Point group  C1



 ATOMIC COORDINATES

 NR  ATOM    CHARGE       X              Y              Z

   1  H       1.00    0.000029956    1.752895010    2.219290432
   2  C       6.00    0.000000282    0.000049282    1.120129791
   3  H       1.00    0.000029960   -1.752682492    2.219472409
   4  O       8.00   -0.000000701   -0.000066574   -1.107184408

 Bond lengths in Bohr (Angstrom)

 1-2  2.068966472  2-3  2.068966616  2-4  2.227314203
     ( 1.094849907)     ( 1.094849984)     ( 1.178643918)

 Bond angles

  1-2-3  115.81269998   1-2-4  122.09365728   3-2-4  122.09364271

 NUCLEAR CHARGE:                   16
 NUMBER OF PRIMITIVE AOS:          80
 NUMBER OF SYMMETRY AOS:           78
 NUMBER OF CONTRACTIONS:           48   (   48A   )
 NUMBER OF INNER CORE ORBITALS:     0   (    0A   )
 NUMBER OF OUTER CORE ORBITALS:     2   (    2A   )
 NUMBER OF VALENCE ORBITALS:       10   (   10A   )


 NUCLEAR REPULSION ENERGY   31.89108843


 Eigenvalues of metric

         1 0.126E-01 0.226E-01 0.268E-01 0.326E-01 0.459E-01 0.659E-01 0.974E-01 0.108E+00


 Contracted 2-electron integrals neglected if value below      1.0D-14
 AO integral compression algorithm  1   Integral accuracy      1.0D-14

     5.505 MB (compressed) written to integral file ( 80.8%)

     Node minimum: 0.786 MB, node maximum: 1.311 MB


 NUMBER OF SORTED TWO-ELECTRON INTEGRALS:     115444.     BUFFER LENGTH:  32768
 NUMBER OF SEGMENTS:   1  SEGMENT LENGTH:     115444      RECORD LENGTH: 524288

 Memory used in sort:       0.67 MW

 SORT1 READ      943706. AND WROTE      109607. INTEGRALS IN      1 RECORDS. CPU TIME:     0.02 SEC, REAL TIME:     0.02 SEC
 SORT2 READ      658441. AND WROTE      692076. INTEGRALS IN     18 RECORDS. CPU TIME:     0.00 SEC, REAL TIME:     0.02 SEC

 Node minimum:      114856.  Node maximum:      115836. integrals

 OPERATOR DM      FOR CENTER  0  COORDINATES:    0.000000    0.000000    0.000000

 Program * Restricted Hartree-Fock

 Molecular orbitals read from record     2100.2  Type=RHF/CANONICAL

 NELEC=   16   SYM=1   MS2= 0   THRE=1.0D-08   THRD=1.0D-07   THRG=1.0D-07  HFMA2=F  DIIS_START=2   DIIS_MAX=10   DIIS_INCORE=F

 Level shifts:    0.00 (CLOSED)    0.00 (OPEN)    0.30 (GAP_MIN)

 ITER           ETOT              DE          GRAD        DDIFF     DIIS  NEXP   TIME(IT)  TIME(TOT)  DIAG
   1     -113.89915402    -113.89915402     0.00D+00     0.69D-01     0     0       0.03      0.06    start
   2     -113.89915404      -0.00000002     0.83D-05     0.50D-05     1     0       0.01      0.07    diag
   3     -113.89915404      -0.00000000     0.16D-05     0.15D-05     2     0       0.02      0.09    diag
   4     -113.89915404      -0.00000000     0.43D-06     0.37D-06     3     0       0.03      0.12    diag
   5     -113.89915404      -0.00000000     0.18D-06     0.20D-06     4     0       0.01      0.13    diag
   6     -113.89915404      -0.00000000     0.51D-07     0.48D-07     5     0       0.02      0.15    diag
   7     -113.89915404      -0.00000000     0.40D-07     0.33D-07     0     0       0.02      0.17    diag

 Final occupancy:   8

 !RHF STATE 1.1 Energy               -113.899154041660
  RHF One-electron energy            -218.537181656580
  RHF Two-electron energy              72.746939187508
  RHF Kinetic energy                  113.922775394356
  RHF Nuclear energy                   31.891088427413
  RHF Virial quotient                  -0.999792654694

 !RHF STATE 1.1 Dipole moment           0.00000454     0.00005431     1.04301443
 Dipole moment /Debye                   0.00001153     0.00013803     2.65107826

 Orbital energies:

           1.1          2.1          3.1          4.1          5.1          6.1          7.1          8.1          9.1         10.1
    -20.567646   -11.332451    -1.421458    -0.865336    -0.698787    -0.656537    -0.543645    -0.435791     0.137357     0.159358


 HOMO      8.1    -0.435791 =     -11.8585eV
 LUMO      9.1     0.137357 =       3.7377eV
 LUMO-HOMO         0.573148 =      15.5961eV

 Orbitals saved in record  2100.2


 **********************************************************************************************************************************
 DATASETS  * FILE   NREC   LENGTH (MB)   RECORD NAMES
              1      18       28.69       500      610      700      900      950      970     1000      129      960     1100
                                          VAR    BASINP    GEOM    SYMINP    ZMAT    AOBASIS   BASIS     P2S    ABASIS      S
                                         1400     1410     1200     1210     1080     1600     1650     1700
                                           T        V       H0       H01     AOSYM     SMH    MOLCAS    OPER

              2       4        0.43       700     1000      520     2100
                                         GEOM     BASIS   MCVARS     RHF

              3       2        0.05      1000     8000
                                         BASIS

 PROGRAMS   *        TOTAL    HF-SCF    HF-SCF       INT
 CPU TIMES  *         4.83      0.39      0.26      0.24
 REAL TIME  *         3.29 SEC
 DISK USED  *        29.33 MB (local),      203.72 MB (total)
 SF USED    *         0.02 MB
 GA USED    *         0.00 MB       (max)       0.00 MB       (current)
 **********************************************************************************************************************************
   4  -113.89915391  -113.89915404    -0.00000013  0.00022633  0.00030385  0.00008771  0.00061237  0.00119742  0.00059871      4.18

 Current geometry (xyz format, in Angstrom)


 **********************************************************************************************************************************

 PROGRAM * ALASKA (Gradient of the energy)     Author: R. Lindh

 Orbitals from record         2100.2

 Number of closed-shell orbitals:  8 (  8 )
 Number of occupied orbitals:      8 (  8 )

 Number of electrons= 16     Singlet     Space symmetry=1      Wavefunction type: CLOSED


 SCF GRADIENT FOR STATE 1.1

 Atom          dE/dx               dE/dy               dE/dz

   1         0.000001417         0.000008065         0.000002959
   2        -0.000004232         0.000000074        -0.000026108
   3         0.000001417        -0.000008116         0.000002962
   4         0.000001398        -0.000000022         0.000020187

 Nuclear force contribution to virial =        -0.000010090

 Entering BMAT geometry-optimization, modelhes=F
 Reading points 1 to 5 from record 700.2,  wavefunction type=HF-SCF000

 torquex=0.2079D-09  torquey=-.1205D-10  torquez=-.2907D-12 total=    0.0000

 Entering opt_bmat, project=F  hessinp=F  newcoord=F  MAXIT=100  maxitq=40
 Smallest nonzero eigenvalue of G:  0.100D+01
 BFGS update of hessian using  4 points
 bmat iter=  5  nc=   6  grad=     0.00019373  step=     0.00002498  stepmax=     0.30000000  scale=     1.00000000  de=-0.000000001856
 it=  1  dnq=  0.250D-04  dnx=  0.208D-04
 it=  2  dnq=  0.139D-09  dnx=  0.649D-10
 back transformation to cartesian coordinates converged in  2 iterations
 Bmat iter=  5  dq=   0.00002498  dx=   0.00002083  rms=   0.00000601  de=  -0.0000000004  enext=-113.8991540421

 Optimization point 5

 Variable                      Last           Current        Next           Gradient       Hessian

 E(HF-SCF000) / Hartree   -113.89915391  -113.89915404  -113.89915404
 GX1 / ANGSTROM              0.00001585     0.00001585     0.00001585     0.00000268     3.57106483
 GY1 / ANGSTROM              0.92791609     0.92759209     0.92757843     0.00001524     3.57106483
 GZ1 / ANGSTROM              1.17418098     1.17439792     1.17439913     0.00000559     3.57106483
 GX2 / ANGSTROM              0.00000016     0.00000015     0.00000015    -0.00000800     3.57106483
 GY2 / ANGSTROM              0.00002646     0.00002608     0.00002603     0.00000014     3.57106483
 GZ2 / ANGSTROM              0.59292600     0.59274716     0.59275106    -0.00004934     3.57106483
 GX3 / ANGSTROM              0.00001585     0.00001585     0.00001585     0.00000268     3.57106483
 GY3 / ANGSTROM             -0.92780369    -0.92747963    -0.92746596    -0.00001534     3.57106483
 GZ3 / ANGSTROM              1.17427689     1.17449422     1.17449546     0.00000560     3.57106483
 GX4 / ANGSTROM             -0.00000037    -0.00000037    -0.00000037     0.00000264     3.57106483
 GY4 / ANGSTROM             -0.00003556    -0.00003523    -0.00003519    -0.00000004     3.57106483
 GZ4 / ANGSTROM             -0.58564133    -0.58589676    -0.58590311     0.00003815     3.57106483
 Convergence:                0.00000000  (line search)     0.00003927     0.00003552  (total)

 Geometry written to block  6 of record 700


 Recomputing integrals since geometry changed


 PROGRAM * SEWARD (Integral evaluation for generally contracted gaussian basis sets)     Author: Roland Lindh, 1990

 Geometry written to block  6 of record 700


 Point group  C1



 ATOMIC COORDINATES

 NR  ATOM    CHARGE       X              Y              Z

   1  H       1.00    0.000029956    1.752869201    2.219292708
   2  C       6.00    0.000000283    0.000049189    1.120137160
   3  H       1.00    0.000029960   -1.752656662    2.219474762
   4  O       8.00   -0.000000701   -0.000066501   -1.107196405

 Bond lengths in Bohr (Angstrom)

 1-2  2.068941979  2-3  2.068941991  2-4  2.227333568
     ( 1.094836946)     ( 1.094836953)     ( 1.178654165)

 Bond angles

  1-2-3  115.81217735   1-2-4  122.09391185   3-2-4  122.09391077

 NUCLEAR CHARGE:                   16
 NUMBER OF PRIMITIVE AOS:          80
 NUMBER OF SYMMETRY AOS:           78
 NUMBER OF CONTRACTIONS:           48   (   48A   )
 NUMBER OF INNER CORE ORBITALS:     0   (    0A   )
 NUMBER OF OUTER CORE ORBITALS:     2   (    2A   )
 NUMBER OF VALENCE ORBITALS:       10   (   10A   )


 NUCLEAR REPULSION ENERGY   31.89097340


 Eigenvalues of metric

         1 0.126E-01 0.226E-01 0.268E-01 0.326E-01 0.459E-01 0.659E-01 0.974E-01 0.108E+00


 Contracted 2-electron integrals neglected if value below      1.0D-14
 AO integral compression algorithm  1   Integral accuracy      1.0D-14

     5.767 MB (compressed) written to integral file ( 77.3%)

     Node minimum: 0.786 MB, node maximum: 1.311 MB


 NUMBER OF SORTED TWO-ELECTRON INTEGRALS:     115444.     BUFFER LENGTH:  32768
 NUMBER OF SEGMENTS:   1  SEGMENT LENGTH:     115444      RECORD LENGTH: 524288

 Memory used in sort:       0.67 MW

 SORT1 READ      943706. AND WROTE      109607. INTEGRALS IN      1 RECORDS. CPU TIME:     0.02 SEC, REAL TIME:     0.03 SEC
 SORT2 READ      658442. AND WROTE      692076. INTEGRALS IN     18 RECORDS. CPU TIME:     0.01 SEC, REAL TIME:     0.01 SEC

 Node minimum:      114856.  Node maximum:      115836. integrals

 OPERATOR DM      FOR CENTER  0  COORDINATES:    0.000000    0.000000    0.000000

 Program * Restricted Hartree-Fock

 Molecular orbitals read from record     2100.2  Type=RHF/CANONICAL

 NELEC=   16   SYM=1   MS2= 0   THRE=1.0D-08   THRD=1.0D-07   THRG=1.0D-07  HFMA2=F  DIIS_START=2   DIIS_MAX=10   DIIS_INCORE=F

 Level shifts:    0.00 (CLOSED)    0.00 (OPEN)    0.30 (GAP_MIN)

 ITER           ETOT              DE          GRAD        DDIFF     DIIS  NEXP   TIME(IT)  TIME(TOT)  DIAG
   1     -113.89915404    -113.89915404     0.00D+00     0.69D-01     0     0       0.05      0.07    start
   2     -113.89915404      -0.00000000     0.74D-06     0.38D-06     1     0       0.02      0.09    diag
   3     -113.89915404      -0.00000000     0.19D-06     0.15D-06     2     0       0.01      0.10    diag
   4     -113.89915404      -0.00000000     0.11D-06     0.60D-07     3     0       0.02      0.12    diag
   5     -113.89915404      -0.00000000     0.23D-07     0.24D-07     4     0       0.02      0.14    diag
   6     -113.89915404       0.00000000     0.56D-08     0.63D-08     0     0       0.01      0.15    diag

 Final occupancy:   8

 !RHF STATE 1.1 Energy               -113.899154042099
  RHF One-electron energy            -218.536966705212
  RHF Two-electron energy              72.746839267717
  RHF Kinetic energy                  113.922767811373
  RHF Nuclear energy                   31.890973395396
  RHF Virial quotient                  -0.999792721247

 !RHF STATE 1.1 Dipole moment           0.00000454     0.00005418     1.04304425
 Dipole moment /Debye                   0.00001154     0.00013772     2.65115404

 Orbital energies:

           1.1          2.1          3.1          4.1          5.1          6.1          7.1          8.1          9.1         10.1
    -20.567646   -11.332450    -1.421450    -0.865342    -0.698787    -0.656535    -0.543640    -0.435794     0.137353     0.159359


 HOMO      8.1    -0.435794 =     -11.8586eV
 LUMO      9.1     0.137353 =       3.7376eV
 LUMO-HOMO         0.573147 =      15.5961eV

 Orbitals saved in record  2100.2


 **********************************************************************************************************************************
 DATASETS  * FILE   NREC   LENGTH (MB)   RECORD NAMES
              1      18       28.69       500      610      700      900      950      970     1000      129      960     1100
                                          VAR    BASINP    GEOM    SYMINP    ZMAT    AOBASIS   BASIS     P2S    ABASIS      S
                                         1400     1410     1200     1210     1080     1600     1650     1700
                                           T        V       H0       H01     AOSYM     SMH    MOLCAS    OPER

              2       4        0.43       700     1000      520     2100
                                         GEOM     BASIS   MCVARS     RHF

              3       2        0.05      1000     8000
                                         BASIS

 PROGRAMS   *        TOTAL    HF-SCF    HF-SCF       INT
 CPU TIMES  *         5.85      0.36      0.26      0.24
 REAL TIME  *         3.91 SEC
 DISK USED  *        29.33 MB (local),      203.72 MB (total)
 SF USED    *         0.02 MB
 GA USED    *         0.00 MB       (max)       0.00 MB       (current)
 **********************************************************************************************************************************
   5  -113.89915404  -113.89915404    -0.00000000  0.00002611  0.00003552  0.00001025  0.00002583  0.00003927  0.00001964      5.20

 Current geometry (xyz format, in Angstrom)


 **********************************************************************************************************************************

 PROGRAM * ALASKA (Gradient of the energy)     Author: R. Lindh

 Orbitals from record         2100.2

 Number of closed-shell orbitals:  8 (  8 )
 Number of occupied orbitals:      8 (  8 )

 Number of electrons= 16     Singlet     Space symmetry=1      Wavefunction type: CLOSED


 SCF GRADIENT FOR STATE 1.1

 Atom          dE/dx               dE/dy               dE/dz

   1         0.000001417         0.000000296         0.000000315
   2        -0.000004232         0.000000006        -0.000001474
   3         0.000001417        -0.000000301         0.000000316
   4         0.000001398        -0.000000002         0.000000843

 Nuclear force contribution to virial =        -0.000000138

 Entering BMAT geometry-optimization, modelhes=F
 Reading points 1 to 6 from record 700.2,  wavefunction type=HF-SCF000

 torquex=-.4083D-10  torquey=-.2577D-11  torquez=-.5246D-12 total=    0.0000

 Entering opt_bmat, project=F  hessinp=F  newcoord=F  MAXIT=100  maxitq=40
 Smallest nonzero eigenvalue of G:  0.100D+01
 BFGS update of hessian using  5 points
 bmat iter=  6  nc=   6  grad=     0.00001138  step=     0.00000782  stepmax=     0.30000000  scale=     1.00000000  de=-0.000000000033
 it=  1  dnq=  0.782D-05  dnx=  0.168D-05
 it=  2  dnq=  0.349D-11  dnx=  0.256D-11
