
 Working directory              : /tmp/lme/molpro.dsoJ7wNslo/
 Global scratch directory       : /tmp/lme/molpro.dsoJ7wNslo/
 Wavefunction directory         : /home/lme/wfu/
 Main file repository           : /tmp/lme/molpro.dsoJ7wNslo/

 id        : liedlgroup

 Nodes     nprocs
 sv1-c724     5
 GA implementation: MPI file
 GA implementation (serial work in mppx): MPI file

 Using customized tuning parameters: mindgm=1; mindgv=20; mindgc=4; mindgr=1; noblas=0; minvec=7
 default implementation of scratch files=sf  


 Variables initialized (1025), CPU time= 0.00 sec
 memory, 200, m                                                                  ! Memory Requirements
 gthresh, optgrad=1.d-7,twoint=1.d-14,prefac=1.d-16                            ! Guntram Rezept um numerischen Schmutz zu entfernen
 orient,mass
 geometry = {
  C,                  0.23809524,    0.54112553,    0.00000000
  H,                  0.77125899,   -0.38657939,    0.00000000
  H,                 -0.83190476,    0.54112553,    0.00000000
  O,                  0.86513567,    1.63217588,    0.00000000
 }
 
 mass, iso
 basis=6-311g(d,p)
 
 {hf
 start,atden}
 
 optg
 {frequencies, symm=auto, print=0,analytical}
 put,molden,hcoh.molden
 Commands initialized (840), CPU time= 0.01 sec, 684 directives.
 Default parameters read. Elapsed time= 0.07 sec

 Checking input...
 Passed
1


                                         ***  PROGRAM SYSTEM MOLPRO  ***
                                       Copyright, TTI GmbH Stuttgart, 2015
                                    Version 2022.3 linked Wed Nov 30 12:40:34 2022


 **********************************************************************************************************************************
 LABEL *                                                                                 
  (6 PROC) 64 bit mpp version                                                            DATE: 25-Aug-25          TIME: 16:30:15  
 **********************************************************************************************************************************

 SHA1:             e31ec9a5ea85254ab76f59d122cbdd51c71cf98b
 **********************************************************************************************************************************

 Memory per process:       200 MW
 Total memory per node:   1000 MW

 GA preallocation disabled
 GA check disabled

 Variable memory set to 200.0 MW


 THRESHOLDS:

 ZERO    =  1.00D-12  ONEINT  =  1.00D-12  TWOINT  =  1.00D-14  PREFAC  =  1.00D-16  XXXXXX  =  1.00D-09  EORDER  =  1.00D-04
 ENERGY  =  0.00D+00  ETEST   =  0.00D+00  EDENS   =  0.00D+00  THRDEDEF=  1.00D-06  GRADIENT=  1.00D-05  STEP    =  1.00D-03
 ORBITAL =  1.00D-05  CIVEC   =  1.00D-05  COEFF   =  1.00D-04  PRINTCI =  5.00D-02  PUNCHCI =  9.90D+01  OPTGRAD =  1.00D-07
 OPTENERG=  1.00D-06  OPTSTEP =  3.00D-04  THRGRAD =  1.00D-10  COMPRESS=  1.00D-11  VARMIN  =  1.00D-07  VARMAX  =  1.00D-03
 THRDOUB =  0.00D+00  THRDIV  =  1.00D-05  THRRED  =  1.00D-07  THRPSP  =  1.00D+00  THRDC   =  1.00D-10  THRCS   =  1.00D-10
 THRNRM  =  1.00D-08  THREQ   =  0.00D+00  THRDE   =  1.00D+00  THRREF  =  1.00D-05  SPARFAC =  1.00D+00  THRDLP  =  1.00D-07
 THRDIA  =  1.00D-10  THRDLS  =  1.00D-07  THRGPS  =  0.00D+00  THRKEX  =  0.00D+00  THRDIS  =  2.00D-01  THRVAR  =  1.00D-10
 THRLOC  =  1.00D-06  THRGAP  =  1.00D-06  THRLOCT = -1.00D+00  THRGAPT = -1.00D+00  THRORB  =  1.00D-06  THRMLTP =  0.00D+00
 THRCPQCI=  1.00D-10  KEXTA   =  0.00D+00  THRCOARS=  0.00D+00  SYMTOL  =  1.00D-06  GRADTOL =  1.00D-06  THROVL  =  1.00D-08
 THRORTH =  1.00D-08  THRDLOVL= -1.00D+00  GRID    =  1.00D-06  GRIDMAX =  1.00D-03  DTMAX   =  0.00D+00  THROCCDE=  1.00D-01
 THROCCDE=  1.00D-01  THRPRINT=  2.50D-01

 ZCENTRE=MASS


 Geometry recognized as XYZ



 Using masses of most abundant isotopes

 **********************************************************************************************************************************
 SETTING BASIS          =    6-311G(D,P)


 Recomputing integrals since basis changed


 Using spherical harmonics

 Library entry C      S 6-311G               selected for orbital group  1
 Library entry C      P 6-311G               selected for orbital group  1
 Library entry C      D 6-311G*              selected for orbital group  1
 Library entry H      S 6-311G               selected for orbital group  2
 Library entry H      P 6-311G**             selected for orbital group  2
 Library entry O      S 6-311G               selected for orbital group  3
 Library entry O      P 6-311G               selected for orbital group  3
 Library entry O      D 6-311G*              selected for orbital group  3


 PROGRAM * SEWARD (Integral evaluation for generally contracted gaussian basis sets)     Author: Roland Lindh, 1990

 Geometry written to block  1 of record 700

 Orientation using atomic masses  
 Molecule type: Asymmetric top
 Symmetry elements: X
 Rotational constants:      32.5062907     36.5731243    292.3297901 GHz

 Point group  Cs  



 ATOMIC COORDINATES

 NR  ATOM    CHARGE       X              Y              Z

   1  C       6.00    0.000000000    0.000065234   -1.199413931
   2  H       1.00    0.000000000    1.747040217   -2.217544835
   3  H       1.00    0.000000000   -1.753157923   -2.206747382
   4  O       8.00    0.000000000    0.000336530    1.178617415

 Bond lengths in Bohr (Angstrom)

 1-2  2.022006956  1-3  2.022006953  1-4  2.378031361
     ( 1.070000001)     ( 1.070000000)     ( 1.258400003)

 Bond angles

  2-1-3  119.88652707   2-1-4  120.22694603   3-1-4  119.88652690

 NUCLEAR CHARGE:                   16
 NUMBER OF PRIMITIVE AOS:          80
 NUMBER OF SYMMETRY AOS:           78
 NUMBER OF CONTRACTIONS:           48   (   36A'  +   12A"  )
 NUMBER OF INNER CORE ORBITALS:     0   (    0A'  +    0A"  )
 NUMBER OF OUTER CORE ORBITALS:     2   (    2A'  +    0A"  )
 NUMBER OF VALENCE ORBITALS:       10   (    8A'  +    2A"  )


 NUCLEAR REPULSION ENERGY   30.59827785

 Eigenvalues of metric

         1 0.150E-01 0.202E-01 0.272E-01 0.310E-01 0.462E-01 0.780E-01 0.980E-01 0.107E+00
         2 0.159E+00 0.211E+00 0.409E+00 0.466E+00 0.498E+00 0.906E+00 0.934E+00 0.999E+00


 Contracted 2-electron integrals neglected if value below      1.0D-14
 AO integral compression algorithm  1   Integral accuracy      1.0D-14

     4.194 MB (compressed) written to integral file (100.0%)

     Node minimum: 0.524 MB, node maximum: 1.049 MB


 NUMBER OF SORTED TWO-ELECTRON INTEGRALS:      75125.     BUFFER LENGTH:  32768
 NUMBER OF SEGMENTS:   1  SEGMENT LENGTH:      75125      RECORD LENGTH: 524288

 Memory used in sort:       0.63 MW

 SORT1 READ      497818. AND WROTE       72257. INTEGRALS IN      1 RECORDS. CPU TIME:     0.02 SEC, REAL TIME:     0.03 SEC
 SORT2 READ      368074. AND WROTE      381036. INTEGRALS IN     10 RECORDS. CPU TIME:     0.01 SEC, REAL TIME:     0.01 SEC

 Node minimum:       74977.  Node maximum:       77273. integrals

 OPERATOR DM      FOR CENTER  0  COORDINATES:    0.000000    0.000000    0.000000


 **********************************************************************************************************************************
 DATASETS  * FILE   NREC   LENGTH (MB)   RECORD NAMES
              1      18       28.66       500      610      700      900      950      970     1000      129      960     1100   
                                          VAR    BASINP    GEOM    SYMINP    ZMAT    AOBASIS   BASIS     P2S    ABASIS      S 
                                         1400     1410     1200     1210     1080     1600     1650     1700   
                                           T        V       H0       H01     AOSYM     SMH    MOLCAS    OPER   

 PROGRAMS   *        TOTAL       INT
 CPU TIMES  *         0.34      0.22
 REAL TIME  *         0.42 SEC
 DISK USED  *        28.97 MB (local),      167.53 MB (total)
 GA USED    *         0.00 MB       (max)       0.00 MB       (current)
 **********************************************************************************************************************************


 Program * Restricted Hartree-Fock

 Orbital guess generated from atomic densities.

 Initial occupancy:   7   1

 NELEC=   16   SYM=1   MS2= 0   THRE=1.0D-08   THRD=1.0D-06   THRG=1.0D-06  HFMA2=F  DIIS_START=2   DIIS_MAX=10   DIIS_INCORE=F

 Level shifts:    0.00 (CLOSED)    0.00 (OPEN)    0.30 (GAP_MIN)

 ITER           ETOT              DE          GRAD        DDIFF     DIIS  NEXP   TIME(IT)  TIME(TOT)  DIAG
   1     -113.82981577    -113.82981577     0.00D+00     0.87D-01     0     0       0.02      0.03    start
   2     -113.85214190      -0.02232613     0.17D-01     0.15D-01     1     0       0.01      0.04    diag
   3     -113.88810431      -0.03596241     0.15D-01     0.72D-02     2     0       0.01      0.05    diag
   4     -113.88857643      -0.00047212     0.11D-02     0.10D-02     3     0       0.00      0.05    diag
   5     -113.88864707      -0.00007064     0.40D-03     0.44D-03     4     0       0.00      0.05    diag
   6     -113.88866582      -0.00001875     0.16D-03     0.25D-03     5     0       0.02      0.07    diag
   7     -113.88866879      -0.00000297     0.74D-04     0.12D-03     6     0       0.00      0.07    diag
   8     -113.88866889      -0.00000010     0.15D-04     0.22D-04     7     0       0.00      0.07    fixocc
   9     -113.88866889      -0.00000000     0.20D-05     0.33D-05     8     0       0.02      0.09    diag
  10     -113.88866889      -0.00000000     0.38D-06     0.58D-06     9     0       0.02      0.11    diag/orth
  11     -113.88866889      -0.00000000     0.54D-07     0.59D-07     0     0       0.01      0.12    diag

 Final occupancy:   7   1

 !RHF STATE 1.1 Energy               -113.888668894910
  RHF One-electron energy            -216.079187111305
  RHF Two-electron energy              71.592240364589
  RHF Kinetic energy                  113.686272266509
  RHF Nuclear energy                   30.598277851806
  RHF Virial quotient                  -1.001780308426

 !RHF STATE 1.1 Dipole moment           0.00000000     0.00010602    -1.20446792
 Dipole moment /Debye                   0.00000000     0.00026948    -3.06145208

 Orbital energies:

           1.1          2.1          3.1          4.1          5.1          6.1          7.1          8.1          9.1
    -20.569682   -11.340770    -1.369255    -0.884037    -0.695084    -0.632054    -0.448005     0.157928     0.206075

           1.2          2.2          3.2
     -0.508465     0.114190     0.576933


 HOMO      7.1    -0.448005 =     -12.1908eV
 LUMO      2.2     0.114190 =       3.1073eV
 LUMO-HOMO         0.562195 =      15.2981eV

 Orbitals saved in record  2100.2


 **********************************************************************************************************************************
 DATASETS  * FILE   NREC   LENGTH (MB)   RECORD NAMES
              1      18       28.66       500      610      700      900      950      970     1000      129      960     1100   
                                          VAR    BASINP    GEOM    SYMINP    ZMAT    AOBASIS   BASIS     P2S    ABASIS      S 
                                         1400     1410     1200     1210     1080     1600     1650     1700   
                                           T        V       H0       H01     AOSYM     SMH    MOLCAS    OPER   

              2       4        0.42       700     1000      520     2100   
                                         GEOM     BASIS   MCVARS     RHF  

 PROGRAMS   *        TOTAL    HF-SCF       INT
 CPU TIMES  *         0.47      0.13      0.22
 REAL TIME  *         0.47 SEC
 DISK USED  *        29.23 MB (local),      168.82 MB (total)
 GA USED    *         0.00 MB       (max)       0.00 MB       (current)
 **********************************************************************************************************************************


 PROGRAM * OPT (Geometry optimization)     Authors: F. Eckert and H.-J. Werner


 BFGS update of hessian

 *** Long output written to logfile /home/lme/overlap_integral_gaussian/molpro_files/formaldehyde/hcoh.log ***


 Geometry optimization using default procedure for command HF-SCF

 Geometry written to block  1 of record 700

 Entering BMAT geometry-optimization, modelhes=F
 Optimization method: RF

 ITER.   ENERGY(OLD)    ENERGY(NEW)      DE          GRADMAX     GRADNORM    GRADRMS     STEPMAX     STEPLEN     STEPRMS   CPU-time
   1  -113.88866889  -113.89873049    -0.01006159  0.13531398  0.18153829  0.05240559  0.09359848  0.11477289  0.05738644      0.78
   2  -113.89873049  -113.89909642    -0.00036594  0.01740646  0.02032090  0.00586614  0.02145243  0.03706909  0.01853454      1.67
   3  -113.89909642  -113.89915379    -0.00005737  0.00239781  0.00457264  0.00132001  0.01111618  0.02641120  0.01320560      2.41
   4  -113.89915379  -113.89915403    -0.00000024  0.00050436  0.00065633  0.00018947  0.00061064  0.00106879  0.00053440      3.22
   5  -113.89915403  -113.89915404    -0.00000001  0.00014463  0.00020012  0.00005777  0.00007426  0.00012928  0.00006464      4.08
   6  -113.89915404  -113.89915404    -0.00000000  0.00000080  0.00000137  0.00000040  0.00000236  0.00000407  0.00000203      4.81
   7  -113.89915404  -113.89915404    -0.00000000  0.00000008  0.00000012  0.00000004  0.00000009  0.00000016  0.00000008      5.53

 END OF GEOMETRY OPTIMIZATION.

 Geometry written to block  1 of record 700

 Recomputing wavefunction for reoriented structure

 Current geometry (xyz format, in Angstrom)

    4
 HF-SCF000/6-311G(D,P)  ENERGY=-113.89915404
 C          0.0000000000       -0.0000000108       -0.5891253294
 H          0.0000000000        0.9275221781       -1.1708203296
 H          0.0000000000       -0.9275219106       -1.1708206741
 O          0.0000000000       -0.0000000088        0.5895293126

 **********************************************************************************************************************************


 **********************************************************************************************************************************
 DATASETS  * FILE   NREC   LENGTH (MB)   RECORD NAMES
              1      18       28.66       500      610      700      900      950      970     1000      129      960     1100   
                                          VAR    BASINP    GEOM    SYMINP    ZMAT    AOBASIS   BASIS     P2S    ABASIS      S 
                                         1400     1410     1200     1210     1080     1600     1650     1700   
                                           T        V       H0       H01     AOSYM     SMH    MOLCAS    OPER   

              2       4        0.42       700     1000      520     2100   
                                         GEOM     BASIS   MCVARS     RHF  

 PROGRAMS   *        TOTAL      OPTG    HF-SCF       INT
 CPU TIMES  *         6.26      5.79      0.13      0.22
 REAL TIME  *         3.82 SEC
 DISK USED  *        29.23 MB (local),      168.94 MB (total)
 SF USED    *         0.03 MB
 GA USED    *         0.00 MB       (max)       0.00 MB       (current)
 **********************************************************************************************************************************


 PROGRAM * HESSIAN

 PROGRAM * MCKINLEY (Hessian of the energy)     Author: A. Bernhardsson, R. Lindh

 Orbitals from record         2100.2

 Number of closed-shell orbitals:  8 (  7  1 )
 Number of occupied orbitals:      8 (  7  1 )

 Number of electrons= 16     Singlet     Space symmetry=1      Wavefunction type: CLOSED          


 McKinley needed      6.93 seconds of CPU time

 Entering CPHF calculation

 CPHF needed  99 iterations for 12 perturbations.  Total CPU time:    5.77 sec


 HF-SCF hessian saved to record  5300.2

 PROGRAM * FREQUENCIES (Calculation of harmonic vibrational spectra for HF-SCF)


 Permanent Dipole Moment [debye]
 1-3    0.000000    0.000000    0.000000

 Dipole Moment Norm    0.0000000 [debye]

 Dipole Moment Derivatives [debye/ang]
              1             2             3             4             5             6             7             8
    1    0.00000000    0.00000000    0.00000000    0.00000000    0.00000000    0.00000000    0.00000000    0.00000000
    2    0.00000000    0.00000000    0.00000000    0.00000000    0.00000000    0.00000000    0.00000000    0.00000000
    3    0.00000000    0.00000000    0.00000000    0.00000000    0.00000000    0.00000000    0.00000000    0.00000000
              9            10            11            12
    1    0.00000000    0.00000000    0.00000000    0.00000000
    2    0.00000000    0.00000000    0.00000000    0.00000000
    3    0.00000000    0.00000000    0.00000000    0.00000000

 Projecting out rotations and translations

 Force Constants (Second Derivatives of the Energy) in [a.u.]
                             CX1         CY1         CZ1         HX2         HY2     
           CX1           0.2165237
           CY1           0.0000000   0.6629778
           CZ1           0.0000000   0.0000001   1.2032269
           HX2          -0.0724875   0.0000000   0.0000000   0.0242672
           HY2           0.0000000  -0.2698694   0.0899542   0.0000000   0.2727523
           HZ2           0.0000000   0.0909451  -0.1125537   0.0000000  -0.1208496
           HX3          -0.0724875   0.0000000   0.0000000   0.0242673   0.0000000
           HY3           0.0000000  -0.2698694  -0.0899543   0.0000000  -0.0211043
           HZ3           0.0000000  -0.0909452  -0.1125538   0.0000000   0.0138165
           OX4          -0.0715487   0.0000000   0.0000000   0.0239530   0.0000000
           OY4           0.0000000  -0.1232390  -0.0000000   0.0000000   0.0182213
           OZ4           0.0000000   0.0000000  -0.9781194   0.0000000   0.0170789
                             HZ2         HX3         HY3         HZ3         OX4     
           HZ2           0.1501745
           HX3           0.0000000   0.0242673
           HY3          -0.0138165   0.0000000   0.2727523
           HZ3           0.0101600   0.0000000   0.1208497   0.1501745
           OX4           0.0000000   0.0239530   0.0000000   0.0000000   0.0236428
           OY4           0.0437210   0.0000000   0.0182213  -0.0437210   0.0000000
           OZ4          -0.0477807   0.0000000  -0.0170789  -0.0477807   0.0000000
                             OY4         OZ4     
           OY4           0.0867963
           OZ4          -0.0000000   1.0736809


 Atomic Masses
 1-4   12.000000    1.007825    1.007825   15.994910

 Mass weighted Second Derivative Matrix
                             CX1         CY1         CZ1         HX2         HY2     
           CX1           0.0180436
           CY1           0.0000000   0.0552481
           CZ1           0.0000000   0.0000000   0.1002689
           HX2          -0.0208439   0.0000000   0.0000000   0.0240788
           HY2           0.0000000  -0.0776016   0.0258665   0.0000000   0.2706346
           HZ2           0.0000000   0.0261515  -0.0323651   0.0000000  -0.1199113
           HX3          -0.0208439   0.0000000   0.0000000   0.0240788   0.0000000
           HY3           0.0000000  -0.0776016  -0.0258666   0.0000000  -0.0209404
           HZ3           0.0000000  -0.0261515  -0.0323651   0.0000000   0.0137092
           OX4          -0.0051644   0.0000000   0.0000000   0.0059659   0.0000000
           OY4           0.0000000  -0.0088954  -0.0000000   0.0000000   0.0045383
           OZ4           0.0000000   0.0000000  -0.0706009   0.0000000   0.0042538
                             HZ2         HX3         HY3         HZ3         OX4     
           HZ2           0.1490085
           HX3           0.0000000   0.0240788
           HY3          -0.0137092   0.0000000   0.2706346
           HZ3           0.0100811   0.0000000   0.1199114   0.1490086
           OX4           0.0000000   0.0059659   0.0000000   0.0000000   0.0014781
           OY4           0.0108895   0.0000000   0.0045383  -0.0108895   0.0000000
           OZ4          -0.0119006   0.0000000  -0.0042538  -0.0119006   0.0000000
                             OY4         OZ4     
           OY4           0.0054265
           OZ4          -0.0000000   0.0671264


 Mass Weighted 2nd Derivative Matrix Eigenvalues
 1-10    0.000000    0.000000    0.000000    0.000000    0.000000    0.000000    0.067679    0.071280    0.103873    0.152372
 11-12    0.361816    0.378017

 Mass Weighted 2nd Derivative Matrix Eigenvectors
              1             2             3             4             5             6             7             8
    1    0.00000000    0.00000000    0.85638519    0.00000000    0.00000000    0.00000000   -0.51633749    0.00000000
    2    0.09823611    0.12912004    0.00000000    0.02889740    0.19156610    0.79301337    0.00000000   -0.44560499
    3    0.50047177    0.29664382    0.00000000    0.21074295    0.03319789   -0.12599609    0.00000000    0.00000000
    4   -0.17704877    0.11359313    0.35962821    0.06064008    0.66452006   -0.15929923    0.59647088    0.00000000
    5    0.09886891   -0.04319970    0.00000000    0.00363242    0.11166560    0.32650812    0.00000000    0.21923179
    6    0.25729161   -0.04258022    0.00000000    0.05351243    0.09915179    0.11766136    0.00000000    0.56088626
    7    0.22134149   -0.04730044    0.35962832   -0.28218126   -0.60446573    0.13658427    0.59647107    0.00000000
    8    0.09886895   -0.04319975    0.00000000    0.00363242    0.11166563    0.32650818    0.00000000    0.21923223
    9    0.03278424    0.21451634    0.00000000    0.06863518   -0.07991010   -0.19068924    0.00000000   -0.56088665
   10   -0.17876907   -0.26756230    0.08910342    0.89415750   -0.24238308    0.09167914    0.14778483    0.00000000
   11   -0.45486333    0.79984038    0.00000000    0.07164161   -0.23207956    0.13504270    0.00000000    0.27590509
   12    0.57780309    0.34248028    0.00000000    0.24330629    0.03832752   -0.14546461    0.00000000    0.00000010
              9            10            11            12
    1    0.00000000    0.00000000    0.00000000    0.00000000
    2   -0.00000014   -0.00000003   -0.00000149   -0.32971357
    3   -0.00652779    0.74696425    0.20528651   -0.00000100
    4    0.00000000    0.00000000    0.00000000    0.00000000
    5    0.33900978   -0.16168853    0.59910957    0.56674783
    6    0.58602179   -0.05481365   -0.34639997   -0.35275585
    7    0.00000000    0.00000000    0.00000000    0.00000000
    8   -0.33900978    0.16168864   -0.59910439    0.56675306
    9    0.58602123   -0.05481354   -0.34639701    0.35275914
   10    0.00000000    0.00000000    0.00000000    0.00000000
   11    0.00000012    0.00000000    0.00000000    0.00105873
   12   -0.28854759   -0.61947474   -0.00390838    0.00000004

   Low Vibration      Wavenumber
        Nr             [1/cm] 
        1                0.00
        2                0.00
        3                0.00
        4                0.00
        5                0.00
        6                0.00

     Vibration        Wavenumber
        Nr             [1/cm] 
        1             1337.31
        2             1372.42
        3             1656.74
        4             2006.58
        5             3092.06
        6             3160.53

 FREQUENCIES * CALCULATION OF NORMAL MODES FOR HF-SCF


 Atomic Coordinates

  Nr  Atom  Charge       X              Y              Z

   1   C     6.00    0.000000000   -0.000000020   -1.113285526
   2   H     1.00    0.000000000    1.752762891   -2.212529764
   3   H     1.00    0.000000000   -1.752762386   -2.212530415
   4   O     8.00    0.000000000   -0.000000017    1.114048943

 Gradient norm at reference geometry: 0.12254D-06

 Normal Modes

                              1 A``       2 A`        3 A`        4 A`        5 A` 
 Wavenumbers [cm-1]         1337.31     1372.42     1656.74     2006.58     3092.06
 Intensities [km/mol]          0.00        0.00        0.00        0.00        0.00
 Intensities [relative]        0.00        0.00        0.00        0.00        0.00
           CX1             -0.14905    -0.00000    -0.00000     0.00000    -0.00000
           CY1              0.00000    -0.12864    -0.00000    -0.00000    -0.00000
           CZ1              0.00000    -0.00000    -0.00188     0.21563     0.05926
           HX2              0.59415     0.00000    -0.00000     0.00000    -0.00000
           HY2              0.00000     0.21838     0.33769    -0.16106     0.59678
           HZ2              0.00000     0.55870     0.58374    -0.05460    -0.34505
           HX3              0.59415    -0.00000     0.00000    -0.00000     0.00000
           HY3              0.00000     0.21838    -0.33769     0.16106    -0.59677
           HZ3              0.00000    -0.55870     0.58374    -0.05460    -0.34505
           OX4              0.03695    -0.00000     0.00000    -0.00000     0.00000
           OY4              0.00000     0.06899     0.00000    -0.00000    -0.00000
           OZ4              0.00000     0.00000    -0.07215    -0.15489    -0.00098

                              6 A` 
 Wavenumbers [cm-1]         3160.53
 Intensities [km/mol]          0.00
 Intensities [relative]        0.00
           CX1             -0.00000
           CY1             -0.09518
           CZ1             -0.00000
           HX2              0.00000
           HY2              0.56454
           HZ2             -0.35138
           HX3             -0.00000
           HY3              0.56455
           HZ3              0.35139
           OX4             -0.00000
           OY4              0.00026
           OZ4              0.00000


 Normal Modes of low/zero frequencies

                                  1           2           3           4           5
 Wavenumbers [cm-1]            0.00        0.00        0.00        0.00        0.00
 Intensities [km/mol]          0.00        0.00        0.00        0.00        0.00
 Intensities [relative]        0.00        0.00        0.00        0.00        0.00
           CX1              0.00000     0.00000     0.24722    -0.00000     0.00000
           CY1              0.02836     0.03727    -0.00000     0.00834     0.05530
           CZ1              0.14447     0.08563    -0.00000     0.06084     0.00958
           HX2             -0.17636     0.11315     0.35823     0.06040     0.66194
           HY2              0.09848    -0.04303    -0.00000     0.00362     0.11123
           HZ2              0.25629    -0.04241    -0.00000     0.05330     0.09877
           HX3              0.22048    -0.04712     0.35823    -0.28108    -0.60211
           HY3              0.09848    -0.04303    -0.00000     0.00362     0.11123
           HZ3              0.03266     0.21368    -0.00000     0.06837    -0.07960
           OX4             -0.04470    -0.06690     0.02228     0.22357    -0.06061
           OY4             -0.11373     0.19999    -0.00000     0.01791    -0.05803
           OZ4              0.14447     0.08563    -0.00000     0.06084     0.00958

                                  6
 Wavenumbers [cm-1]            0.00
 Intensities [km/mol]          0.00
 Intensities [relative]        0.00
           CX1              0.00000
           CY1              0.22892
           CZ1             -0.03637
           HX2             -0.15868
           HY2              0.32524
           HZ2              0.11720
           HX3              0.13605
           HY3              0.32524
           HZ3             -0.18995
           OX4              0.02292
           OY4              0.03377
           OZ4             -0.03637


 Frequencies dumped to record   5400.2

 Zero point energy:  0.02876333 [H]     6312.82 [1/CM]       75.52 [KJ/MOL]
 Frequency information read from record  5400.2


 **********************************************************************************************************************************
 DATASETS  * FILE   NREC   LENGTH (MB)   RECORD NAMES
              1      18       28.66       500      610      700      900      950      970     1000      129      960     1100   
                                          VAR    BASINP    GEOM    SYMINP    ZMAT    AOBASIS   BASIS     P2S    ABASIS      S 
                                         1400     1410     1200     1210     1080     1600     1650     1700   
                                           T        V       H0       H01     AOSYM     SMH    MOLCAS    OPER   

              2       7        0.44       700     1000      520     2100     5300     5450     5400   
                                         GEOM     BASIS   MCVARS     RHF     HESS     NMOD     FREQ   

              4       5        0.22      4100     4000     4200     4300     4400   

 PROGRAMS   *        TOTAL      FREQ      OPTG    HF-SCF       INT
 CPU TIMES  *        18.98     12.70      5.79      0.13      0.22
 REAL TIME  *         9.50 SEC
 DISK USED  *        29.23 MB (local),      168.94 MB (total)
 SF USED    *         0.22 MB
 GA USED    *         0.00 MB       (max)       0.00 MB       (current)
 **********************************************************************************************************************************

 Dump information in style MOLDEN to hcoh.molden                                                                     

 Molecular orbitals read from record     2100.2  Type=RHF/CANONICAL  
 Occupation numbers read from record     2100.2  Type=RHF/RHF  
 Orbital energies read from record       2100.2  Type=RHF/CANONICAL  
 Redundancy group numbers read from rec  2100.2  Type=RHF/RHF  

 DUMP ORBITAL  1.1 AS ORBITAL    1  occ=    2.0000  eig=  -20.5676  GROUP=   2
 DUMP ORBITAL  2.1 AS ORBITAL    2  occ=    2.0000  eig=  -11.3324  GROUP=   2
 DUMP ORBITAL  3.1 AS ORBITAL    3  occ=    2.0000  eig=   -1.4214  GROUP=   2
 DUMP ORBITAL  4.1 AS ORBITAL    4  occ=    2.0000  eig=   -0.8653  GROUP=   2
 DUMP ORBITAL  5.1 AS ORBITAL    5  occ=    2.0000  eig=   -0.6988  GROUP=   2
 DUMP ORBITAL  6.1 AS ORBITAL    6  occ=    2.0000  eig=   -0.6565  GROUP=   2
 DUMP ORBITAL  1.2 AS ORBITAL    7  occ=    2.0000  eig=   -0.5436  GROUP=   2
 DUMP ORBITAL  7.1 AS ORBITAL    8  occ=    2.0000  eig=   -0.4358  GROUP=   2

 Total charge:      16.000000
 Frequency information read from record  5400.2

 **********************************************************************************************************************************

 HF/6-311G(D,P)//HF/6-311G(D,P) energy=   -113.899154042136

    OPTG(HF-SCF)          HF-SCF
   -113.89915404   -113.88866889
 **********************************************************************************************************************************
 Molpro calculation terminated
