[Molden Format]
[Molpro variables]
_NUMVAR=  1047.000000000000    
_AVOGAD= 0.6022140760000000E+24
_BOLTZ= 0.1380649000000000E-22
_CLIGHTSI=  299792458.0000000    
_JOULE= 0.4359744722207100E-17
_JPCAL=  4.184000000000000    
_PLANCK= 0.6626070150000000E-33
_BOHR= 0.5291772109030000E-10
_ECHARG= 0.1602176634000000E-18
_ENULL= 0.8854187812800001E-11
_MU= 0.1660539066600000E-26
_EMASS= 0.9109383701500001E-30
_AMU2AU=  1822.888486217313    
_CLIGHT=  29979245800.00000    
_EV= 0.3674932217565494E-01
_KJOULE= 0.3808798847133432E-03
_KJOULE/MOL= 0.3808798847133432E-03
_CM= 0.4556335252912009E-05
_CM-1= 0.4556335252912009E-05
_DEB2SI= 0.3335640951981520E-29
_KCAL= 0.1593601437640628E-02
_KCAL/MOL= 0.1593601437640628E-02
_KELVIN= 0.3166811563455608E-05
_HERTZ= 0.1519829846057038E-15
_HZ= 0.1519829846057038E-15
_TOA= 0.5291772109030000    
_TOANG= 0.5291772109030000    
_TORAD= 0.1745329251994330E-01
_TOCM=  219474.6313631965    
_TODEBYE=  2.541746473194078    
_TOE= 0.4803204712570263E-09
_TOEV=  27.21138624598803    
_TOHERTZ=  6579683920501656.    
_TOHZ=  6579683920501656.    
_TOK=  315775.0248040668    
_TOKCAL=  627.5094740630558    
_TOKELVIN=  315775.0248040668    
_TOKJ=  2625.499639479825    
_TOKJOULE=  2625.499639479825    
_TOKG= 0.1660539066600000E-26
_ANG=  1.889726124625770    
_ANGSTROM=  1.889726124625770    
_RPAREF=  0.000000000000000    
_RPADISS=  0.000000000000000    
_IGNORE_UNDEF=  2.000000000000000    
_STRICTCHECK=  0.000000000000000    
!SEWARD=  0.000000000000000    
!MULTI=  0.000000000000000    
!DFMULTI=  0.000000000000000    
_SEW_ONEEL=  0.000000000000000    
_CPPDONE=FALSE
_DKROLL_DONE=  0.000000000000000    
_FNUC_DONE=  0.000000000000000    
_FOCKDONE=TRUE
_GRADONE=FALSE
_HESSDONE=TRUE
_INTDONE=TRUE
_SCFDONE=TRUE
_MODUL_BLOCK=FALSE
_MODUL_SLATER=FALSE
_MODUL_MRCC=FALSE
_MODUL_NBO6=FALSE
_MODUL_NECI=FALSE
_MODUL_AIMS=TRUE
_MODUL_HDF5=FALSE
_MODUL_GECCO=FALSE
_ISWINDOWS=FALSE
_MRCC_EXEC=
_FITC_AO_SAVED=FALSE
_FITC_MO_SAVED=FALSE
_SHARED_FS=TRUE
_LSTYP=SEWARD
_INTYP=INTS
_GEOMTYP=ZMAT
_GRADTYP=ALASKA
_DIRECT=FALSE
_DKHO= -1.000000000000000    
_FNUC=  0.000000000000000    
_SYNCM=  0.000000000000000    
_BASIS=6-311G(D,P)
_ZCENTRE=MASS
_ZORIENT=  1.000000000000000    
_NELEC=  16.00000000000000    
!SPIN=  0.000000000000000    
_OPTCONV= 0.1620581420424417E-06
_QSDSTEP=  0.000000000000000    
_QSDIRC=  0.000000000000000    
_PROGRAM=FREQ
_CPUSTEP=  12.72000000000000    
_SYSSTEP= 0.9999999999999998E-01
_WALLSTEP=  5.680000000000000    
!DFSCF=  0.000000000000000    
!SCSGRD=  0.000000000000000    
_NCEN=  4.000000000000000    
_CPUTOT=  18.98000000000000    
_DFTEXFAC=  1.000000000000000    
_DMX=  0.000000000000000    
_DMY=-0.8589129496161784E-07
_DMZ= -1.043045236598804    
_DMX_SCF=  0.000000000000000    
_DMY_SCF=-0.8589129496161784E-07
_DMZ_SCF= -1.043045236598804    
_FREQUENCIES= 0.1864002079364636E-04
_HOMO=  7.100000000000000    
_EHOMO=-0.4357938583170379    
_LUMO=  2.200000000000000    
_ELUMO= 0.1373532657111613    
_ENERGY= -113.8991540421363    
_ENERGY_METHOD=HF
_ENERGY_BASIS=6-311G(D,P)
_GEOMETRY_METHOD=HF
_GEOMETRY_BASIS=6-311G(D,P)
_ENUC=  31.89096970035767    
_GRADENERG= -113.8991540421378    
_GRADEXFAC=  9999.000000000000    
_GRADMETHOD=  1.000000000000000    
_NMRMETHOD=  0.000000000000000    
_NMRMAGNET=  0.000000000000000    
_VIRIAL= 0.1431579617388325E-06
!GRID_FREEZE= -1.000000000000000    
!NEESE_INDEX=  0.000000000000000    
_ITERATIONS=  8.000000000000000    
_LASTNELEC=  16.00000000000000    
_LASTSPIN=  0.000000000000000    
_LASTSYM=  1.000000000000000    
_MPP_PROG=  1.000000000000000    
_MSNSTATES=  0.000000000000000    
_RS2PHASE=  0.000000000000000    
_IPROC_MPP=  0.000000000000000    
_IPROC_MPPX=  0.000000000000000    
_NPROC_MPP=  5.000000000000000    
_NPROC_MPPX=  5.000000000000000    
_NPROC_SMP=  6.000000000000000    
_NUMSTEP=  0.000000000000000    
_OPTCONVMX= 0.9460699014287697E-07
_OPTCONVRMS= 0.8102907103738541E-07
_OPTGRAD= 0.1225359668560411E-06
_OPTGRADMX= 0.7674640833954527E-07
_OPTGRADRMS= 0.3537308672487318E-07
_OPTSTEP=  7.000000000000000    
_ORBITAL=  2100.200000000000    
_PI=  3.141592653589793    
_SEIG_MIN= 0.1264079186562760E-01
_SEWPROP=TRUE
_STATUS=  1.000000000000000    
_SYSTOT= 0.6200000000000000    
_VERSION=  2022003.000000000    
_WALLTOT=  9.500000000000000    
_ZPE= 0.2876332954330118E-01
_DATE=25-Aug-25
_LASTORB=0
_OUTPUT=/home/lme/overlap_integral_gaussian/molpro_files/formaldehyde/hcoh.out
_PGROUP=Cs
_TIME=16:30:15
_LIBMOL=/usr/local/molpro/molpro_2022.3.0_sockets/lib/
_VIGRDC=  0.000000000000000    
!VIBCNT=  0.000000000000000    
!RGHFCNT=  0.000000000000000    
!SURFREC=  0.000000000000000    
!XSURFREC=  0.000000000000000    
!XPOLYREC=  0.000000000000000    
!ROTREC=  0.000000000000000    
!POLYREC=  0.000000000000000    
!DIPREC=  0.000000000000000    
!DIP4DREC=  0.000000000000000    
!DIPROT=  0.000000000000000    
!DIP4DROT=  0.000000000000000    
!PTREC=  0.000000000000000    
!PT4DREC=  0.000000000000000    
!VSCFREC=  0.000000000000000    
!VCIREC=  0.000000000000000    
!PVCIREC=  0.000000000000000    
!VMP2REC=  0.000000000000000    
!VMCSCFREC=  0.000000000000000    
!VMRCIREC=  0.000000000000000    
!VIBSTATEREC=  0.000000000000000    
!VIBSTATECNT=  0.000000000000000    
!VIBINFO=  0.000000000000000    
!GAREC=  0.000000000000000    
!SCFORB=  21002.00000000000    
!DEFCORE=  2.000000000000000    
!SCORE=  0.000000000000000    
!NEWMOL=  0.000000000000000    
!NEWSYM=  0.000000000000000    
_SLFILES=slscratch
_NGSSTO=  9.000000000000000    
_SIN=SIN
_COS=COS
_TAN=TAN
_ACOS=ACOS
_ASIN=ASIN
_ATAN=ATAN
_COSH=COSH
_SINH=SINH
_TANH=TANH
_ABS=ABS
_MOD=MOD
_ERF=ERF
_REFC=REFC
_ERFC=ERFC
_HYPOT=HYPOT
_J0=J0
_J1=J1
_JN=JN
_GAMMA=GAMMA
_LGAMMA=LGAMMA
_Y0=Y0
_Y1=Y1
_YN=YN
_EXP=EXP
_LOG=LOG
_LOG10=LOG10
_SQRT=SQRT
_INT=INT
_NINT=NINT
_MAX=MAX
_MIN=MIN
_COSMO=  0.000000000000000    
_COSMOIT=  0.000000000000000    
_COSMOES=  0.000000000000000    
_COSMOEDS=  0.000000000000000    
_COSMOEC=  0.000000000000000    
_COSMOEDCORR=  0.000000000000000    
_FEPSI=  1.000000000000000    
_SL_IsMM=  0.000000000000000    
_SL_NSYM=  2.000000000000000    
_SL_System_BitSw=  0.000000000000000    
_SL_Unique_atoms=  0.000000000000000    
_SL_GRAD=  0.000000000000000    
_SL_MAXUPD_Hess=  5.000000000000000    
_SL_N_PRINT_COD=  5.000000000000000    
_SL_PRINT_CODES=  0.000000000000000    
_SL_BasType=  0.000000000000000    
_SL_Energy_Pred=  0.000000000000000    
_SL_New_Coords=  0.000000000000000    
_SL_Total_Nuclea=  0.000000000000000    
_SL_Highest_Mltp=  0.000000000000000    
_SL_Ref_Geom=  0.000000000000000    
_SL_Symmetry_ope=  1.000000000000000    
_SL_agrad=  0.000000000000000    
_SL_GrdMax=  0.000000000000000    
_SL_GrdNorm=  0.000000000000000    
_SL_GrdRMS=  0.000000000000000    
_SL_Hss_Q=  0.000000000000000    
_SL_Hss_X=  0.000000000000000    
_SL_BMxOld=  0.000000000000000    
_SL_KtB=  0.000000000000000    
_SL_TROld=  0.000000000000000    
_SL_No_of_Intern=  0.000000000000000    
_SL_Hess=  0.000000000000000    
_SL_K=  0.000000000000000    
!LATTICE= -1.000000000000000    
!NEWLATTICE=  0.000000000000000    
!LATGRAD_VAR=FALSE
!SEW_LATTICE=  1.000000000000000    
!AIC_ONEEL=  0.000000000000000    
!LOCAL=  0.000000000000000    
!SAVEDOM= -1.000000000000000    
!RESTDOM= -1.000000000000000    
!SAVEDOM_HF= -1.000000000000000    
!RESTDOM_HF= -1.000000000000000    
!HESSREC=  5300.200000000000    
!FREQREC=  5400.200000000000    
!NMODREC=  5450.200000000000    
!GTASKS=  0.000000000000000    
!HTASKS=  0.000000000000000    
!SAVEDOM_EOM= -1.000000000000000    
!RESTDOM_EOM= -1.000000000000000    
!GRADSTATE= -1.000000000000000    
!DEBUG=  0.000000000000000    
!CFIT_CPHF=  0.000000000000000    
!RDOMAUX_CPHF=  0.000000000000000    
!THRAO_CPHF= 0.1000000000000000E-11
!THRMO_CPHF= 0.1000000000000000E-11
!THROV_CPHF= 0.1000000000000000E-11
!THRSW_CPHF= 0.1000000000000000E-11
!THRPROD_CPHF= 0.1000000000000000E-11
!THRAOPR_CPHF= 0.1000000000000000E-11
!CFIT_SCFGRD=  0.000000000000000    
!RDOMAUX_SCFGRD=  0.000000000000000    
!THRAO_SCFGRD= 0.1000000000000000E-11
!THRMO_SCFGRD= 0.1000000000000000E-11
!THROV_SCFGRD= 0.1000000000000000E-11
!THRSW_SCFGRD= 0.1000000000000000E-11
!THRPROD_SCFGRD= 0.1000000000000000E-11
!THRAOPR_SCFGRD= 0.1000000000000000E-11
!LOCFIT_SCF=  0.000000000000000    
!LOCFIT_MP2=  0.000000000000000    
_RIDOM=  0.000000000000000    
!CC2_METHOD=  0.000000000000000    
_BASIS2006=FALSE
_SVDDEL= -1.000000000000000    
_SVDDELA= -1.000000000000000    
_SVDDELP= -1.000000000000000    
_SVDDELF= -1.000000000000000    
_SVDDELS= -1.000000000000000    
_SVDDEL_ABS= -1.000000000000000    
_SVDDELA_ABS= -1.000000000000000    
_SVDDELP_ABS= -1.000000000000000    
_SVDDELF_ABS= -1.000000000000000    
_SVDDELS_ABS= -1.000000000000000    
_MAXBASIS=  0.000000000000000    
!OPT_CONICAL=  0.000000000000000    
!CLEARSP_JGRID=  0.000000000000000    
_GRDHYBR=  0.000000000000000    
_STATEGRAD=  1.000000000000000    
_4EXT_NDISKS=  1.000000000000000    
!EMBEDFLAG=  1.000000000000000    
!EMBED=FALSE
!EMBED_F12=FALSE
!EMBEDNUC=  0.000000000000000    
_EMBEDENERGY=  0.000000000000000    
!EMBED_DFC=FALSE
!NUM_VOIDS=  0.000000000000000    
_IBODY=  0.000000000000000    
_EMBE_CORR=  0.000000000000000    
!EMBED_PROJ=FALSE
!EMB_PROJ_ZMU=  1000000.000000000    
!CORRECTION_HF=  0.000000000000000    
!EMBED_AORB=  0.000000000000000    
!EMBED_NACORR=  0.000000000000000    
!EMBED_MP2=FALSE
!EMBED_TRUNC_PERTURBATION=FALSE
!EMBED_FROZEN=  0.000000000000000    
!EMBED_ACTIVE=  0.000000000000000    
_CHANGE_BASIS=FALSE
_RESTORE_BASIS=FALSE
_FIX_EMBED_GUESS=FALSE
_EMBED_SCF=FALSE
_HUZINAGA_T=FALSE
_HUZINAGA_F=FALSE
_HUZINAGA=FALSE
_HUZINAGA_CORRECT=FALSE
!FASTLATGRAD=  1.000000000000000    
!FASTVLAMBDA= -1.000000000000000    
!IFORCE= -1.000000000000000    
!USESYM= -1.000000000000000    
_SINDEX=  0.000000000000000    
_AVDOM_OSV=  0.000000000000000    
_AVDOM_PNO=  0.000000000000000    
_AVDOM_PAO=  0.000000000000000    
_AVDOM_LMO=  0.000000000000000    
_CC2OSV_FLAG=  0.000000000000000    
_EOMCCSD_CONV=FALSE
_TMADC2_FLAG=FALSE
_PROPADC2_FLAG=FALSE
_LEN_VirQ=  0.000000000000000    
_GRDCC2LR_FLAG=FALSE
_GRDADC2_FLAG=FALSE
_RO_VGLOBAL=  0.000000000000000    
_OPT=FALSE
_FREQ=FALSE
_HESS=FALSE
_CMRCC_callName=EMPTY
_CMRCC_callCount=  0.000000000000000    
_GECCO_CIROOT=  1.000000000000000    
_SYM_CATION=  1.000000000000000    
_MON_A=FALSE
_MON_B=FALSE
GX1=  0.000000000000000    
GY1=-0.1078744730941874E-07
GZ1=-0.5891253294049906    
GX2=  0.000000000000000    
GY2= 0.9275221780676757    
GZ2= -1.170820329613158    
GX3=  0.000000000000000    
GY3=-0.9275219105770732    
GZ3= -1.170820674063810    
GX4=  0.000000000000000    
GY4=-0.8761183945672727E-08
GZ4= 0.5895293125994848    
CX1=  0.000000000000000    
CY1=-0.2038532100336336E-07
CZ1= -1.113285525655373    
HX2=  0.000000000000000    
HY2=  1.752762891064282    
HZ2= -2.212529764112940    
HX3=  0.000000000000000    
HY3= -1.752762385580303    
HZ3= -2.212530415030335    
OX4=  0.000000000000000    
OY4=-0.1655623818952043E-07
OZ4=  1.114048943251919    
[Atoms] Angs
C     1    6         0.0000000000       -0.0000000108       -0.5891253294
H     2    1         0.0000000000        0.9275221781       -1.1708203296
H     3    1         0.0000000000       -0.9275219106       -1.1708206741
O     4    8         0.0000000000       -0.0000000088        0.5895293126
[GTO]
   1 0
 s    6  1.00
  0.4563240000D+04  0.1966650249D-02
  0.6820240000D+03  0.1523060193D-01
  0.1549730000D+03  0.7612690966D-01
  0.4445530000D+02  0.2608010331D+00
  0.1302900000D+02  0.6164620782D+00
  0.1827730000D+01  0.2210060280D+00
 s    3  1.00
  0.2096420000D+02  0.1146600807D+00
  0.4803310000D+01  0.9199996477D+00
  0.1459330000D+01 -0.3030682134D-02
 s    1  1.00
  0.4834560000D+00  0.1000000000D+01
 s    1  1.00
  0.1455850000D+00  0.1000000000D+01
 p    3  1.00
  0.2096420000D+02  0.4024869267D-01
  0.4803310000D+01  0.2375939567D+00
  0.1459330000D+01  0.8158538515D+00
 p    1  1.00
  0.4834560000D+00  0.1000000000D+01
 p    1  1.00
  0.1455850000D+00  0.1000000000D+01
 d    1  1.00
  0.6260000000D+00  0.1000000000D+01
  
   2 0
 s    3  1.00
  0.3386500000D+02  0.2549381454D-01
  0.5094790000D+01  0.1903731086D+00
  0.1158790000D+01  0.8521614860D+00
 s    1  1.00
  0.3258400000D+00  0.1000000000D+01
 s    1  1.00
  0.1027410000D+00  0.1000000000D+01
 p    1  1.00
  0.7500000000D+00  0.1000000000D+01
  
   3 0
 s    3  1.00
  0.3386500000D+02  0.2549381454D-01
  0.5094790000D+01  0.1903731086D+00
  0.1158790000D+01  0.8521614860D+00
 s    1  1.00
  0.3258400000D+00  0.1000000000D+01
 s    1  1.00
  0.1027410000D+00  0.1000000000D+01
 p    1  1.00
  0.7500000000D+00  0.1000000000D+01
  
   4 0
 s    6  1.00
  0.8588500000D+04  0.1895150083D-02
  0.1297230000D+04  0.1438590063D-01
  0.2992960000D+03  0.7073200310D-01
  0.8737710000D+02  0.2400010105D+00
  0.2567890000D+02  0.5947970261D+00
  0.3740040000D+01  0.2808020123D+00
 s    3  1.00
  0.4211750000D+02  0.1138890124D+00
  0.9628370000D+01  0.9208111006D+00
  0.2853320000D+01 -0.3274470358D-02
 s    1  1.00
  0.9056610000D+00  0.1000000000D+01
 s    1  1.00
  0.2556110000D+00  0.1000000000D+01
 p    3  1.00
  0.4211750000D+02  0.3651139738D-01
  0.9628370000D+01  0.2371529830D+00
  0.2853320000D+01  0.8197019412D+00
 p    1  1.00
  0.9056610000D+00  0.1000000000D+01
 p    1  1.00
  0.2556110000D+00  0.1000000000D+01
 d    1  1.00
  0.1292000000D+01  0.1000000000D+01


[MO]
 Sym=      1.1
 Ene=     -20.5676
 Spin= Alpha
 Occup=    2.000000
1 0.000005786853093
2 -0.000067984146531
3 0.000284246960318
4 0.000466173117834
5 0.0
6 -0.000000000006581
7 0.000105395704851
8 0.0
9 0.000000000009436
10 0.000313665061182
11 0.0
12 -0.000000000182668
13 0.000303240932309
14 -0.000043918747464
15 -0.000093067668203
16 0.000136986415667
17 0.0
18 0.0
19 0.000000000168098
20 0.000006480764360
21 -0.000030331384863
22 0.000010597094245
23 0.0
24 -0.000018071593720
25 -0.000021222692219
26 0.000006480718706
27 -0.000030331544819
28 0.000010597028371
29 0.0
30 0.000018071498531
31 -0.000021222681738
32 0.55145286533490
33 0.47169813772014
34 0.005479058841189
35 -0.000845111273661
36 0.0
37 0.000000001846781
38 -0.001716162111478
39 0.0
40 -0.000000000977088
41 0.000537725040841
42 0.0
43 0.000000000405835
44 0.000082563900772
45 -0.000233191186251
46 0.000152648936989
47 0.000080542249263
48 0.0
49 0.0
50 0.000000000225116
 Sym=      2.1
 Ene=     -11.3324
 Spin= Alpha
 Occup=    2.000000
1 0.56337623623678
2 0.46663144058436
3 0.003948121428377
4 -0.000065970735107
5 0.0
6 -0.000000000726108
7 0.000324814203756
8 0.0
9 0.000000000455712
10 0.000274870661947
11 0.0
12 -0.000000000144181
13 0.000257920905545
14 -0.000486852698197
15 -0.000028721424790
16 0.000515574122987
17 0.0
18 0.0
19 0.000000000058130
20 0.000389967484307
21 -0.000028607830099
22 0.000187041503069
23 0.0
24 -0.000002894712447
25 0.000048762864599
26 0.000389967486464
27 -0.000028607777797
28 0.000187041382280
29 0.0
30 0.000002894569884
31 0.000048763070475
32 -0.000232906926799
33 -0.000341661530792
34 0.000684949156469
35 -0.000544183912111
36 0.0
37 0.000000000020069
38 -0.000359481644227
39 0.0
40 0.000000000044377
41 -0.000542676902577
42 0.0
43 0.000000000008550
44 0.000301275650267
45 -0.000049463145538
46 -0.000183449543007
47 0.000232912688544
48 0.0
49 0.0
50 -0.000000000009116
 Sym=      3.1
 Ene=      -1.4214
 Spin= Alpha
 Occup=    2.000000
1 -0.061636099370488
2 -0.098823071477812
3 0.25046225515124
4 0.041276234703793
5 0.0
6 0.000000003364432
7 0.088004686821725
8 0.0
9 0.000000002989474
10 0.12160759540747
11 0.0
12 0.000000008239384
13 -0.009744935230766
14 -0.014152912206870
15 -0.020551836884759
16 0.034704749091630
17 0.0
18 0.0
19 0.000000004899471
20 0.016983052357180
21 0.020502101086911
22 -0.004867705846436
23 0.0
24 -0.003611123874632
25 0.006014934164530
26 0.016983048021749
27 0.020502103455058
28 -0.004867702553709
29 0.0
30 0.003611115871007
31 0.006014937017647
32 -0.10577749641400
33 -0.17654258937553
34 0.49713749799939
35 0.34278681385620
36 0.0
37 -0.000000012610099
38 -0.066413902965764
39 0.0
40 -0.000000015956680
41 -0.10105181610951
42 0.0
43 -0.000000001016407
44 -0.038413330383172
45 -0.009236530443915
46 -0.009317440784657
47 0.018553971228572
48 0.0
49 0.0
50 -0.000000000148164
 Sym=      4.1
 Ene=      -0.8653
 Spin= Alpha
 Occup=    2.000000
1 -0.086985651777264
2 -0.14559642560695
3 0.39597022065019
4 0.25311816666773
5 0.0
6 -0.000000005582232
7 -0.081519650454605
8 0.0
9 -0.000000009296820
10 -0.11655099968991
11 0.0
12 -0.000000021740841
13 -0.067788390910612
14 -0.009685542070250
15 0.014907776538519
16 -0.005222234468269
17 0.0
18 0.0
19 0.000000008722291
20 0.10733347970877
21 0.15507110015702
22 0.006247072837077
23 0.0
24 -0.021040062690666
25 0.008968337367075
26 0.10733351439089
27 0.15507112524449
28 0.006247072224499
29 0.0
30 0.021040059016903
31 0.008968352863853
32 0.047172457826050
33 0.079743607546798
34 -0.23532061041335
35 -0.24589641605445
36 0.0
37 0.000000007174454
38 -0.068604145194405
39 0.0
40 0.000000010999666
41 -0.10376116942521
42 0.0
43 0.000000010628435
44 -0.067448598555308
45 -0.001982015046259
46 -0.004225671618600
47 0.006207686664859
48 0.0
49 0.0
50 -0.000000002401946
 Sym=      5.1
 Ene=      -0.6988
 Spin= Alpha
 Occup=    2.000000
1 -0.000000003304401
2 -0.000000006483227
3 0.000000017647918
4 0.000000078942436
5 0.0
6 0.17842224018874
7 0.000000017736201
8 0.0
9 0.27586653133870
10 0.000000015675907
11 0.0
12 0.13016423002258
13 0.000000013027720
14 -0.000000004490963
15 0.000000008075102
16 -0.000000003584139
17 0.0
18 0.0
19 0.006472837770928
20 0.10714843187135
21 0.16293162398641
22 0.039011253783823
23 0.0
24 -0.014966390952957
25 0.009404170782304
26 -0.10714843029881
27 -0.16293166069346
28 -0.039011262629532
29 0.0
30 -0.014966391749531
31 -0.009404187885364
32 0.000000007538577
33 0.000000013186866
34 -0.000000052873203
35 -0.000000043793569
36 0.0
37 0.15852126011128
38 -0.000000002586874
39 0.0
40 0.24916182645399
41 -0.000000007034986
42 0.0
43 0.18047660293567
44 -0.000000003590183
45 -0.000000003504993
46 0.000000002781093
47 0.000000000723899
48 0.0
49 0.0
50 -0.020631442900237
 Sym=      6.1
 Ene=      -0.6565
 Spin= Alpha
 Occup=    2.000000
1 0.011532439044270
2 0.018841284611135
3 -0.074419920360626
4 0.061888877756515
5 0.0
6 -0.000000000963739
7 -0.16868105455960
8 0.0
9 0.000000001325820
10 -0.26260385906855
11 0.0
12 -0.000000001168802
13 -0.059639457824429
14 0.003810784498490
15 0.025011336834764
16 -0.028822121333254
17 0.0
18 0.0
19 0.000000006160951
20 0.056470084323723
21 0.081107935578762
22 0.033918498578859
23 0.0
24 -0.009695649592764
25 -0.002975485760941
26 0.056470115236948
27 0.081107982293495
28 0.033918507259801
29 0.0
30 0.009695655940813
31 -0.002975476616611
32 -0.037265548071788
33 -0.063135150253958
34 0.19242797686446
35 0.29967856615961
36 0.0
37 0.000000046677255
38 0.23607727175110
39 0.0
40 0.000000070923965
41 0.34515879788555
42 0.0
43 0.000000052223776
44 0.25354557503149
45 0.011924004528671
46 0.013460097289597
47 -0.025384101818268
48 0.0
49 0.0
50 0.000000002173329
 Sym=      1.2
 Ene=      -0.5436
 Spin= Alpha
 Occup=    2.000000
1 0.0
2 0.0
3 0.0
4 0.0
5 0.14555273868252
6 0.0
7 0.0
8 0.24421153265847
9 0.0
10 0.0
11 0.18477089604072
12 0.0
13 0.0
14 0.0
15 0.0
16 0.0
17 0.000000000318254
18 0.053928176345069
19 0.0
20 0.0
21 0.0
22 0.0
23 0.007986414328051
24 0.0
25 0.0
26 0.0
27 0.0
28 0.0
29 0.007986419267319
30 0.0
31 0.0
32 0.0
33 0.0
34 0.0
35 0.0
36 0.22098394613601
37 0.0
38 0.0
39 0.34711718812872
40 0.0
41 0.0
42 0.31069945481948
43 0.0
44 0.0
45 0.0
46 0.0
47 0.0
48 0.000000004272122
49 -0.029491339218560
50 0.0
 Sym=      7.1
 Ene=      -0.4358
 Spin= Alpha
 Occup=    2.000000
1 -0.000000002023692
2 -0.000000004168780
3 0.000000010464232
4 0.000000106277602
5 0.0
6 -0.084574778599917
7 0.000000041900825
8 0.0
9 -0.14284315322086
10 0.000000080401296
11 0.0
12 -0.030414537861643
13 0.000000232182998
14 -0.000000000323082
15 -0.000000002877999
16 0.000000003201081
17 0.0
18 0.0
19 0.071874701419287
20 -0.10324894543627
21 -0.22911484626128
22 -0.12802112861481
23 0.0
24 0.004777041436664
25 -0.007623689407925
26 0.10324890326518
27 0.22911479148780
28 0.12802117910529
29 0.0
30 0.004777022786044
31 0.007623696510587
32 0.000000006444151
33 0.000000011223279
34 -0.000000042455816
35 -0.000000212905773
36 0.0
37 0.24729069530464
38 -0.000000016099459
39 0.0
40 0.37388583587681
41 -0.000000020165546
42 0.0
43 0.39231822581536
44 0.000000017663803
45 -0.000000003737538
46 0.000000002744480
47 0.000000000993057
48 0.0
49 0.0
50 -0.009642280007720
 Sym=      2.2
 Ene=       0.1374
 Spin= Alpha
 Occup=    0.000000
1 0.0
2 0.0
3 0.0
4 0.0
5 0.17806631034091
6 0.0
7 0.0
8 0.25464783290827
9 0.0
10 0.0
11 0.75440733709884
12 0.0
13 0.0
14 0.0
15 0.0
16 0.0
17 -0.000000002034913
18 -0.037527628416935
19 0.0
20 0.0
21 0.0
22 0.0
23 0.023413860692398
24 0.0
25 0.0
26 0.0
27 0.0
28 0.0
29 0.023413870887057
30 0.0
31 0.0
32 0.0
33 0.0
34 0.0
35 0.0
36 -0.18008003842077
37 0.0
38 0.0
39 -0.24013805130980
40 0.0
41 0.0
42 -0.54591856666814
43 0.0
44 0.0
45 0.0
46 0.0
47 0.0
48 -0.000000001495839
49 -0.005636802151809
50 0.0
 Sym=      8.1
 Ene=       0.1594
 Spin= Alpha
 Occup=    0.000000
1 0.042078272075489
2 0.068562427493024
3 -0.093551665010455
4 -1.81666630457669
5 0.0
6 -0.000000002020218
7 0.082253323480955
8 0.0
9 -0.000000007959645
10 0.055354650023429
11 0.0
12 -0.000000005489585
13 0.43336695600813
14 0.002764927232889
15 0.012098655887957
16 -0.014863583120846
17 0.0
18 0.0
19 0.000000002130449
20 0.023879492283768
21 -0.076616203501925
22 1.33629335035381
23 0.0
24 0.011479434210692
25 -0.005053639437350
26 0.023879479979052
27 -0.076616267570002
28 1.33629374715976
29 0.0
30 -0.011479440762469
31 -0.005053646763348
32 0.001084844445157
33 0.001240728825452
34 -0.000512998770935
35 0.015147269521040
36 0.0
37 -0.000000008239385
38 -0.024794106108495
39 0.0
40 -0.000000008042972
41 -0.047835130042008
42 0.0
43 -0.000000029524239
44 -0.11642387112940
45 -0.003542299475506
46 -0.000763472794433
47 0.004305772269939
48 0.0
49 0.0
50 0.000000000724456
 Sym=      9.1
 Ene=       0.2133
 Spin= Alpha
 Occup=    0.000000
1 -0.000000000497275
2 -0.000000000474004
3 -0.000000001637150
4 0.000000005089422
5 0.0
6 -0.14339210910390
7 0.000000001577993
8 0.0
9 -0.089482466162203
10 0.000000036394940
11 0.0
12 -1.10963563962254
13 -0.000000009330455
14 0.000000006120115
15 0.000000012173500
16 -0.000000018293616
17 0.0
18 0.0
19 -0.028316965531037
20 0.001242976055493
21 -0.22406481763017
22 1.90288130093548
23 0.0
24 0.030671834804933
25 -0.015925977047281
26 -0.001242966409875
27 0.22406485878079
28 -1.90288113694844
29 0.0
30 0.030671830104285
31 0.015926005415944
32 0.000000006016144
33 0.000000010285017
34 -0.000000030030542
35 -0.000000103275498
36 0.0
37 0.035595107593623
38 0.000000004986393
39 0.0
40 0.033481700915487
41 0.000000006597241
42 0.0
43 0.21539279755904
44 0.000000029797030
45 0.000000000075576
46 0.000000002318775
47 -0.000000002394351
48 0.0
49 0.0
50 0.007531314028815
 Sym=     10.1
 Ene=       0.3331
 Spin= Alpha
 Occup=    0.000000
1 -0.010300465276674
2 -0.019581338116860
3 0.006832834897034
4 1.52779575524955
5 0.0
6 0.000000005455390
7 0.007014184077553
8 0.0
9 0.000000020952952
10 0.073917954476648
11 0.0
12 -0.000000087591794
13 1.91728774847486
14 -0.003251035226152
15 -0.007505047345592
16 0.010756082571743
17 0.0
18 0.0
19 0.000000001060202
20 -0.008697386207872
21 0.11115758303361
22 0.068154700549285
23 0.0
24 -0.000128520408959
25 0.010200000308510
26 -0.008697451987200
27 0.11115721943812
28 0.068155503580517
29 0.0
30 0.000128493786671
31 0.010200017076533
32 0.038307515589110
33 0.061913836146698
34 -0.079778934905408
35 -2.01590569082541
36 0.0
37 -0.000000014195498
38 0.046244418330335
39 0.0
40 -0.000000018809950
41 0.073293438345269
42 0.0
43 -0.000000009645887
44 0.66443293139618
45 0.013824250097939
46 0.014340697392604
47 -0.028164947490542
48 0.0
49 0.0
50 0.000000000621597
 Sym=     11.1
 Ene=       0.4798
 Spin= Alpha
 Occup=    0.000000
1 -0.019026285839238
2 -0.033772212509862
3 -0.091236983999291
4 2.24581044694814
5 0.0
6 0.000000001757429
7 -0.033257543129831
8 0.0
9 -0.000000008209465
10 -0.11234706883469
11 0.0
12 0.000000389828955
13 -0.68637349297647
14 0.003842920655661
15 0.007337272867178
16 -0.011180193522839
17 0.0
18 0.0
19 0.000000014167367
20 -0.064253393987113
21 -1.35693780988842
22 0.020924519718154
23 0.0
24 0.033260548748085
25 -0.051367768199544
26 -0.064253395671940
27 -1.35693762560731
28 0.020924519201392
29 0.0
30 -0.033260531488088
31 -0.051367781679247
32 0.013851103165880
33 0.023343596384695
34 -0.059297386557526
35 -0.33231452093589
36 0.0
37 0.000000001237068
38 0.018308306314284
39 0.0
40 0.000000014383111
41 -0.008736732151465
42 0.0
43 -0.000000118386517
44 0.28564124140663
45 0.011677273704297
46 -0.006399924630357
47 -0.005277349073940
48 0.0
49 0.0
50 0.000000007092506
 Sym=     12.1
 Ene=       0.5713
 Spin= Alpha
 Occup=    0.000000
1 0.000000002982520
2 0.000000005751279
3 -0.000000013199932
4 0.000000167380829
5 0.0
6 0.048226927623436
7 -0.000000027714044
8 0.0
9 0.11235489600725
10 0.000000038651410
11 0.0
12 2.49891015819403
13 0.000001269755607
14 0.000000002926322
15 -0.000000006835915
16 0.000000003909593
17 0.0
18 0.0
19 -0.071463463407273
20 -0.035468688392229
21 -1.35070967109251
22 -0.46263157953157
23 0.0
24 0.072106158103339
25 -0.003347689580444
26 0.035468710217280
27 1.35071002269240
28 0.46263189906703
29 0.0
30 0.072106189606257
31 0.003347720602939
32 0.000000009640093
33 0.000000014638184
34 0.000000009584990
35 -0.000000950202809
36 0.0
37 -0.12740650013815
38 -0.000000028588316
39 0.0
40 -0.18393888239539
41 -0.000000059176999
42 0.0
43 -0.58223766112019
44 0.000000253374693
45 0.000000009104159
46 0.000000003192164
47 -0.000000012296323
48 0.0
49 0.0
50 -0.014929713085135
 Sym=      3.2
 Ene=       0.5732
 Spin= Alpha
 Occup=    0.000000
1 0.0
2 0.0
3 0.0
4 0.0
5 -0.22654620719197
6 0.0
7 0.0
8 -0.95079117933601
9 0.0
10 0.0
11 1.15188024625658
12 0.0
13 0.0
14 0.0
15 0.0
16 0.0
17 0.000000003054970
18 -0.025756295208199
19 0.0
20 0.0
21 0.0
22 0.0
23 -0.029023569024703
24 0.0
25 0.0
26 0.0
27 0.0
28 0.0
29 -0.029023571156318
30 0.0
31 0.0
32 0.0
33 0.0
34 0.0
35 0.0
36 0.011208268323641
37 0.0
38 0.0
39 0.005376175420500
40 0.0
41 0.0
42 -0.021286696269570
43 0.0
44 0.0
45 0.0
46 0.0
47 0.0
48 0.000000000798428
49 0.024874060900855
50 0.0
 Sym=     13.1
 Ene=       0.7437
 Spin= Alpha
 Occup=    0.000000
1 -0.000000003911156
2 -0.000000008557301
3 0.000000107950865
4 -0.000000735205861
5 0.0
6 0.25734004835905
7 -0.000000057544969
8 0.0
9 1.02570002280843
10 -0.000000192555006
11 0.0
12 -1.80033566923239
13 0.000000050730470
14 0.000000004984551
15 -0.000000055026088
16 0.000000050041536
17 0.0
18 0.0
19 0.090937600230654
20 -0.053406383862759
21 -0.43406751654421
22 1.49772828216742
23 0.0
24 -0.028695712855293
25 0.048119025735929
26 0.053406351231486
27 0.43406752690259
28 -1.49772773050475
29 0.0
30 -0.028695622411971
31 -0.048119037638336
32 -0.000000006640955
33 -0.000000011354211
34 0.000000028716798
35 0.000000186388740
36 0.0
37 -0.006500562298217
38 -0.000000029205790
39 0.0
40 0.005236201881352
41 -0.000000044065416
42 0.0
43 0.029554049469563
44 -0.000000178738222
45 0.000000001562945
46 0.000000003450587
47 -0.000000005013532
48 0.0
49 0.0
50 -0.028852709956539
 Sym=     14.1
 Ene=       0.8044
 Spin= Alpha
 Occup=    0.000000
1 0.080353269978161
2 0.16513640675191
3 -1.19320676725027
4 3.72550876609992
5 0.0
6 0.000000044179289
7 0.17650076764665
8 0.0
9 0.000000207040216
10 0.81185715846422
11 0.0
12 -0.000000112820728
13 -0.83810166529991
14 -0.090518736759400
15 0.064907834159694
16 0.025610902599706
17 0.0
18 0.0
19 0.000000059685094
20 0.051650189065198
21 0.018877959392307
22 -1.19689267461360
23 0.0
24 0.12518768240318
25 -0.057151154430444
26 0.051650200643029
27 0.018878394224804
28 -1.19689350420465
29 0.0
30 -0.12518767852675
31 -0.057151223224822
32 0.012999447828475
33 0.022451313013119
34 -0.034053723634359
35 -0.80847836462990
36 0.0
37 -0.000000002594968
38 -0.010935909626089
39 0.0
40 0.000000006591386
41 -0.033642934783898
42 0.0
43 -0.000000079876591
44 0.81344533662230
45 0.013374197805810
46 0.006359907645754
47 -0.019734105451564
48 0.0
49 0.0
50 -0.000000004612489
 Sym=     15.1
 Ene=       0.8939
 Spin= Alpha
 Occup=    0.000000
1 -0.089269646957422
2 -0.19082550573924
3 1.47445951350132
4 -0.70723044300720
5 0.0
6 0.000000024373686
7 0.17119134616369
8 0.0
9 0.000000112376620
10 0.80088571496368
11 0.0
12 -0.000000082875009
13 -0.16058074672388
14 0.090828051304045
15 -0.000190971495467
16 -0.090637079808578
17 0.0
18 0.0
19 -0.000000023616528
20 -0.015825000838630
21 0.068077946565042
22 0.23728399045799
23 0.0
24 -0.059101014338377
25 0.071371021224256
26 -0.015825005297736
27 0.068078227126577
28 0.23728367274908
29 0.0
30 0.059100998680464
31 0.071371058223439
32 0.040259965923068
33 0.072125611107411
34 -0.24251090353531
35 -0.39643589338959
36 0.0
37 -0.000000008177482
38 0.064853359800669
39 0.0
40 0.000000000725536
41 -0.066247187404126
42 0.0
43 -0.000000054537040
44 1.28365540075282
45 -0.030043160295248
46 -0.027373344634097
47 0.057416504929345
48 0.0
49 0.0
50 -0.000000007441466
 Sym=     16.1
 Ene=       0.9952
 Spin= Alpha
 Occup=    0.000000
1 0.027474370943597
2 0.045305023522591
3 0.041215560529147
4 0.72614892571562
5 0.0
6 -0.000000044247048
7 -0.14226315600536
8 0.0
9 -0.000000113327481
10 -0.17455614341798
11 0.0
12 0.000000013999950
13 0.71415954448626
14 -0.16841229525532
15 -0.14811558852436
16 0.31652788377968
17 0.0
18 0.0
19 -0.000000030792361
20 0.020062506372823
21 0.049921897087909
22 0.003042656103391
23 0.0
24 -0.065316713160504