
 Working directory              : /tmp/lme/molpro.dfAEdmMUug/
 Global scratch directory       : /tmp/lme/molpro.dfAEdmMUug/
 Wavefunction directory         : /home/lme/wfu/
 Main file repository           : /tmp/lme/molpro.dfAEdmMUug/

 id        : liedlgroup

 Nodes     nprocs
 sv1-c724     6
 GA implementation: MPI file
 GA implementation (serial work in mppx): MPI file

 Using customized tuning parameters: mindgm=1; mindgv=20; mindgc=4; mindgr=1; noblas=0; minvec=7
 default implementation of scratch files=sf  


 Variables initialized (1025), CPU time= 0.00 sec
 memory, 200, m                                                                  ! Memory Requirements
 gthresh, optgrad=1.d-7,twoint=1.d-14,prefac=1.d-16                            ! Guntram Rezept um numerischen Schmutz zu entfernen
 orient,mass
 geometry = {
   H,      1.2001,      0.0363,      0.8431
   C,      0.7031,      0.0083,     -0.1305
   H,      0.9877,      0.8943,     -0.7114
   H,      1.0155,     -0.8918,     -0.6742
   O,     -0.6582,     -0.0067,      0.1730
   H,     -1.1326,     -0.0311,     -0.6482
 }
 
 mass, iso
 basis=6-311g(d,p)
 
 {hf
 start,atden}
 
 ccsd
 
 optg
 {frequencies, symm=auto, print=0,analytical}
 put,molden,methanol_ccsd.molden
 Commands initialized (840), CPU time= 0.00 sec, 684 directives.
 Default parameters read. Elapsed time= 0.07 sec

 Checking input...
 Passed
1


                                         ***  PROGRAM SYSTEM MOLPRO  ***
                                       Copyright, TTI GmbH Stuttgart, 2015
                                    Version 2022.3 linked Wed Nov 30 12:40:34 2022


 **********************************************************************************************************************************
 LABEL *                                                                                 
  (6 PROC) 64 bit mpp version                                                            DATE: 27-Aug-25          TIME: 09:12:18  
 **********************************************************************************************************************************

 SHA1:             e31ec9a5ea85254ab76f59d122cbdd51c71cf98b
 **********************************************************************************************************************************

 Memory per process:       200 MW
 Total memory per node:   1200 MW

 GA preallocation disabled
 GA check disabled

 Variable memory set to 200.0 MW


 THRESHOLDS:

 ZERO    =  1.00D-12  ONEINT  =  1.00D-12  TWOINT  =  1.00D-14  PREFAC  =  1.00D-16  XXXXXX  =  1.00D-09  EORDER  =  1.00D-04
 ENERGY  =  0.00D+00  ETEST   =  0.00D+00  EDENS   =  0.00D+00  THRDEDEF=  1.00D-06  GRADIENT=  1.00D-05  STEP    =  1.00D-03
 ORBITAL =  1.00D-05  CIVEC   =  1.00D-05  COEFF   =  1.00D-04  PRINTCI =  5.00D-02  PUNCHCI =  9.90D+01  OPTGRAD =  1.00D-07
 OPTENERG=  1.00D-06  OPTSTEP =  3.00D-04  THRGRAD =  1.00D-10  COMPRESS=  1.00D-11  VARMIN  =  1.00D-07  VARMAX  =  1.00D-03
 THRDOUB =  0.00D+00  THRDIV  =  1.00D-05  THRRED  =  1.00D-07  THRPSP  =  1.00D+00  THRDC   =  1.00D-10  THRCS   =  1.00D-10
 THRNRM  =  1.00D-08  THREQ   =  0.00D+00  THRDE   =  1.00D+00  THRREF  =  1.00D-05  SPARFAC =  1.00D+00  THRDLP  =  1.00D-07
 THRDIA  =  1.00D-10  THRDLS  =  1.00D-07  THRGPS  =  0.00D+00  THRKEX  =  0.00D+00  THRDIS  =  2.00D-01  THRVAR  =  1.00D-10
 THRLOC  =  1.00D-06  THRGAP  =  1.00D-06  THRLOCT = -1.00D+00  THRGAPT = -1.00D+00  THRORB  =  1.00D-06  THRMLTP =  0.00D+00
 THRCPQCI=  1.00D-10  KEXTA   =  0.00D+00  THRCOARS=  0.00D+00  SYMTOL  =  1.00D-06  GRADTOL =  1.00D-06  THROVL  =  1.00D-08
 THRORTH =  1.00D-08  THRDLOVL= -1.00D+00  GRID    =  1.00D-06  GRIDMAX =  1.00D-03  DTMAX   =  0.00D+00  THROCCDE=  1.00D-01
 THROCCDE=  1.00D-01  THRPRINT=  2.50D-01

 ZCENTRE=MASS


 Geometry recognized as XYZ



 Using masses of most abundant isotopes

 **********************************************************************************************************************************
 SETTING BASIS          =    6-311G(D,P)


 Recomputing integrals since basis changed


 Using spherical harmonics

 Library entry H      S 6-311G               selected for orbital group  1
 Library entry H      P 6-311G**             selected for orbital group  1
 Library entry C      S 6-311G               selected for orbital group  2
 Library entry C      P 6-311G               selected for orbital group  2
 Library entry C      D 6-311G*              selected for orbital group  2
 Library entry O      S 6-311G               selected for orbital group  4
 Library entry O      P 6-311G               selected for orbital group  4
 Library entry O      D 6-311G*              selected for orbital group  4


 PROGRAM * SEWARD (Integral evaluation for generally contracted gaussian basis sets)     Author: Roland Lindh, 1990

 Geometry written to block  1 of record 700

 Orientation using atomic masses  
 Molecule type: Asymmetric top
 Rotational constants:      24.7464623     25.6941431    127.2825897 GHz

 Point group  C1  



 ATOMIC COORDINATES

 NR  ATOM    CHARGE       X              Y              Z

   1  H       1.00    0.000239186    1.946913765    1.973978834
   2  C       6.00   -0.000000496   -0.023460726    1.351475288
   3  H       1.00    1.687995551   -0.978637244    2.083501359
   4  H       1.00   -1.688384931   -0.978085799    2.083191979
   5  O       8.00    0.000012311    0.116672798   -1.280592288
   6  H       1.00   -0.000039283   -1.562529362   -1.908533718

 Bond lengths in Bohr (Angstrom)

 1-2  2.066370334  2-3  2.073054511  2-4  2.073007561  2-5  2.635795350  5-6  1.792771691
     ( 1.093476090)     ( 1.097013204)     ( 1.096988359)     ( 1.394802832)     ( 0.948693923)

 Bond angles

  1-2-3  109.44373761   1-2-4  109.44299419   1-2-5  104.48537341   2-5-6  107.45579790

  3-2-4  109.04794568   3-2-5  112.15464891   4-2-5  112.14557272

 NUCLEAR CHARGE:                   18
 NUMBER OF PRIMITIVE AOS:          96
 NUMBER OF SYMMETRY AOS:           94
 NUMBER OF CONTRACTIONS:           60   (   60A   )
 NUMBER OF INNER CORE ORBITALS:     0   (    0A   )
 NUMBER OF OUTER CORE ORBITALS:     2   (    2A   )
 NUMBER OF VALENCE ORBITALS:       12   (   12A   )


 NUCLEAR REPULSION ENERGY   40.79052691

 Eigenvalues of metric

         1 0.855E-02 0.203E-01 0.232E-01 0.237E-01 0.387E-01 0.440E-01 0.457E-01 0.578E-01


 Contracted 2-electron integrals neglected if value below      1.0D-14
 AO integral compression algorithm  1   Integral accuracy      1.0D-14

     14.680 MB (compressed) written to integral file ( 86.1%)

     Node minimum: 1.573 MB, node maximum: 2.884 MB


 NUMBER OF SORTED TWO-ELECTRON INTEGRALS:     279990.     BUFFER LENGTH:  32768
 NUMBER OF SEGMENTS:   1  SEGMENT LENGTH:     279990      RECORD LENGTH: 524288

 Memory used in sort:       0.84 MW

 SORT1 READ     2100581. AND WROTE      275727. INTEGRALS IN      1 RECORDS. CPU TIME:     0.03 SEC, REAL TIME:     0.04 SEC
 SORT2 READ     1648902. AND WROTE     1675365. INTEGRALS IN     66 RECORDS. CPU TIME:     0.02 SEC, REAL TIME:     0.02 SEC

 Node minimum:      278465.  Node maximum:      279990. integrals

 OPERATOR DM      FOR CENTER  0  COORDINATES:    0.000000    0.000000    0.000000


 **********************************************************************************************************************************
 DATASETS  * FILE   NREC   LENGTH (MB)   RECORD NAMES
              1      18       28.78       500      610      700      900      950      970     1000      129      960     1100   
                                          VAR    BASINP    GEOM    SYMINP    ZMAT    AOBASIS   BASIS     P2S    ABASIS      S 
                                         1400     1410     1200     1210     1080     1600     1650     1700   
                                           T        V       H0       H01     AOSYM     SMH    MOLCAS    OPER   

 PROGRAMS   *        TOTAL       INT
 CPU TIMES  *         0.42      0.30
 REAL TIME  *         0.52 SEC
 DISK USED  *        29.12 MB (local),      209.65 MB (total)
 GA USED    *         0.00 MB       (max)       0.00 MB       (current)
 **********************************************************************************************************************************


 Program * Restricted Hartree-Fock

 Orbital guess generated from atomic densities.

 Initial occupancy:   9

 NELEC=   18   SYM=1   MS2= 0   THRE=1.0D-08   THRD=1.0D-06   THRG=1.0D-06  HFMA2=F  DIIS_START=2   DIIS_MAX=10   DIIS_INCORE=F

 Level shifts:    0.00 (CLOSED)    0.00 (OPEN)    0.30 (GAP_MIN)

 ITER           ETOT              DE          GRAD        DDIFF     DIIS  NEXP   TIME(IT)  TIME(TOT)  DIAG
   1     -115.03873552    -115.03873552     0.00D+00     0.55D-01     0     0       0.02      0.08    start
   2     -115.06790423      -0.02916870     0.92D-02     0.67D-02     1     0       0.03      0.11    diag
   3     -115.07447430      -0.00657007     0.47D-02     0.22D-02     2     0       0.02      0.13    diag
   4     -115.07495475      -0.00048045     0.92D-03     0.74D-03     3     0       0.02      0.15    diag
   5     -115.07498231      -0.00002756     0.18D-03     0.23D-03     4     0       0.03      0.18    diag
   6     -115.07498327      -0.00000096     0.31D-04     0.45D-04     5     0       0.02      0.20    diag
   7     -115.07498331      -0.00000004     0.67D-05     0.67D-05     6     0       0.04      0.24    diag
   8     -115.07498331      -0.00000000     0.22D-05     0.21D-05     7     0       0.03      0.27    fixocc
   9     -115.07498331      -0.00000000     0.48D-06     0.62D-06     8     0       0.03      0.30    diag
  10     -115.07498331      -0.00000000     0.82D-07     0.95D-07     0     0       0.05      0.35    diag/orth

 Final occupancy:   9

 !RHF STATE 1.1 Energy               -115.074983312306
  RHF One-electron energy            -237.839572481981
  RHF Two-electron energy              81.974062264036
  RHF Kinetic energy                  115.077195569612
  RHF Nuclear energy                   40.790526905639
  RHF Virial quotient                  -0.999980775884

 !RHF STATE 1.1 Dipole moment          -0.00002271    -0.61703560     0.37998027
 Dipole moment /Debye                  -0.00005773    -1.56834807     0.96581352

 Orbital energies:

           1.1          2.1          3.1          4.1          5.1          6.1          7.1          8.1          9.1         10.1
    -20.543073   -11.268331    -1.363590    -0.921116    -0.694694    -0.620865    -0.591066    -0.498737    -0.444254     0.154104

          11.1
      0.190711


 HOMO      9.1    -0.444254 =     -12.0888eV
 LUMO     10.1     0.154104 =       4.1934eV
 LUMO-HOMO         0.598358 =      16.2822eV

 Orbitals saved in record  2100.2


 **********************************************************************************************************************************
 DATASETS  * FILE   NREC   LENGTH (MB)   RECORD NAMES
              1      18       28.78       500      610      700      900      950      970     1000      129      960     1100   
                                          VAR    BASINP    GEOM    SYMINP    ZMAT    AOBASIS   BASIS     P2S    ABASIS      S 
                                         1400     1410     1200     1210     1080     1600     1650     1700   
                                           T        V       H0       H01     AOSYM     SMH    MOLCAS    OPER   

              2       4        0.49       700     1000      520     2100   
                                         GEOM     BASIS   MCVARS     RHF  

 PROGRAMS   *        TOTAL    HF-SCF       INT
 CPU TIMES  *         0.78      0.36      0.30
 REAL TIME  *         0.69 SEC
 DISK USED  *        29.55 MB (local),      212.20 MB (total)
 GA USED    *         0.00 MB       (max)       0.00 MB       (current)
 **********************************************************************************************************************************


 PROGRAM * CCSD (Closed-shell coupled cluster)     Authors: C. Hampel, H.-J. Werner, 1991, M. Deegan, P.J. Knowles, 1992


 Convergence thresholds:  THRVAR = 1.00D-12  THRDEN = 1.00D-08

 Using ITF CCSD gradient implementation

 Number of core orbitals:           2 (   2 )
 Number of closed-shell orbitals:   7 (   7 )
 Number of external orbitals:      51 (  51 )

 Molecular orbitals read from record     2100.2  Type=RHF/CANONICAL  

 Integral transformation finished. Total CPU:   1.53 sec, npass=  1  Memory used:   1.17 MW
  Reference energy                   -115.074983312306

  MP2 correlation energy               -0.360604977456
  MP2 total energy                   -115.435588289762

 ITER.      SQ.NORM     CORR.ENERGY   TOTAL ENERGY   ENERGY CHANGE        DEN1      VAR(S)    VAR(P)  DIIS     TIME
   1      1.10753190    -0.38098138  -115.45596469    -0.02037640    -0.01081974  1.06e-03  1.74e-03  1  1     2.28
   2      1.11472757    -0.38246324  -115.45744655    -0.00148186    -0.00829957  2.72e-05  2.50e-04  2  2     4.00
   3      1.11708023    -0.38269634  -115.45767965    -0.00023310    -0.00177741  3.18e-06  3.36e-05  3  3     5.75
   4      1.11827090    -0.38269853  -115.45768184    -0.00000219    -0.00094727  6.91e-08  2.73e-06  4  4     8.04
   5      1.11854513    -0.38268378  -115.45766709     0.00001475    -0.00018714  2.46e-08  2.04e-07  5  5     9.93
   6      1.11860451    -0.38268110  -115.45766442     0.00000267    -0.00003868  3.14e-10  9.62e-09  6  0    11.85
   7      1.11861072    -0.38268018  -115.45766349     0.00000093    -0.00000480  6.14e-11  6.21e-10  6  1    14.13
   8      1.11861132    -0.38268009  -115.45766341     0.00000008    -0.00000045  1.75e-12  4.69e-11  6  2    15.67
   9      1.11861133    -0.38268008  -115.45766339     0.00000002    -0.00000004  2.15e-13  3.53e-12  6  3    17.60
  10      1.11861136    -0.38268008  -115.45766339    -0.00000000    -0.00000001  8.49e-15  1.65e-13          19.41
 WARNING: Named clock 3265 does not exist. Cannot pop it.

 Norm of t1 vector:      0.04160801     S-energy:      0.00000000   T1 diagnostic:  0.00786318

 Time per iteration:                      1.94 sec

 RESULTS
 =======

  Reference energy                   -115.074983312306
  CCSD correlation energy              -0.382680079919
 !CCSD total energy                  -115.457663392225

 Starting CP-CCSD iterations.   Author: W. Gyorffy (2012)

 ITER.      NRM1           NRM2      VAR(S)+VAR(P)   DIIS    TIME
   1     0.00113007     0.33041372     2.99e-04      1  1    2.16
   2     0.00104131     0.32790039     1.68e-05      2  2    4.83
   3     0.00098905     0.32753227     1.71e-06      3  3    6.98
   4     0.00096775     0.32736979     2.84e-07      4  4    9.50
   5     0.00095685     0.32733647     3.01e-08      5  5   11.86
   6     0.00095311     0.32732871     3.35e-09      6  0   14.25
   7     0.00095206     0.32732745     4.16e-10      6  1   16.73
   8     0.00095177     0.32732657     5.18e-11      6  2   19.09
   9     0.00095169     0.32732623     4.65e-12      6  3   21.23
  10     0.00095167     0.32732607     3.35e-13             23.53

 WARNING: Named clock 3265 does not exist. Cannot pop it.

 Time per iteration:                      2.35 sec

 CPHF start vector      0.2 not found

 Starting Coupled-perturbed Hartree-Fock, convergence threshold= 1.0D-06

 ITER   MIC  DIIS      VAR         VARC       CPU
   1     0     1    0.34D-02    0.11D-02     0.01
   2     4     2    0.12D-03    0.41D-04     0.01
   3     4     3    0.27D-05    0.78D-06     0.01
   4     1     4    0.56D-06    0.40D-07     0.02

 CPHF convergence reached in  4 macroiterations and    9 microiterations.   Accuracy: 5.6040D-07

 CPHF solution written to record  8500.2

 Dipole moments (unrelaxed):           -0.00002192    -0.57781512     0.32581368
 Orbital relaxation contribution:       0.00000039    -0.00318090     0.00427449
 !CCSD STATE 1.1 Dipole moment         -0.00002153    -0.58099602     0.33008817
 Dipole moment /Debye                  -0.00005473    -1.47674459     0.83900044

 CPU-time for coupled-perturbed hartree-fock:          0.05 sec

 Number of N-1 electron functions:               7
 Number of N-2 electron functions:              28
 Number of singly external CSFs:               357
 Number of doubly external CSFs:             63903
 Total number of CSFs:                       64261

 CCSD gradient info saved on record        55555.1




 **********************************************************************************************************************************
 DATASETS  * FILE   NREC   LENGTH (MB)   RECORD NAMES
              1      20       40.79       500      610      700      900      950      970     1000      129      960     1100   
                                          VAR    BASINP    GEOM    SYMINP    ZMAT    AOBASIS   BASIS     P2S    ABASIS      S 
                                         1400     1410     1200     1210     1080     1600     1650     1700     1380    55555   
                                           T        V       H0       H01     AOSYM     SMH    MOLCAS    OPER     JKOP     CCSD   

              2       5        0.58       700     1000      520     2100     8500   
                                         GEOM     BASIS   MCVARS     RHF     CPHF   

 PROGRAMS   *        TOTAL      CCSD    HF-SCF       INT
 CPU TIMES  *        59.55     58.75      0.36      0.30
 REAL TIME  *        31.18 SEC
 DISK USED  *        41.45 MB (local),      283.60 MB (total)
 SF USED    *        62.63 MB
 GA USED    *         0.00 MB       (max)       0.00 MB       (current)
 **********************************************************************************************************************************


 PROGRAM * OPT (Geometry optimization)     Authors: F. Eckert and H.-J. Werner


 BFGS update of hessian

 *** Long output written to logfile /home/lme/overlap_integral_gaussian/molpro_files/methanol/ccsd/methanol_ccsd.log ***


 Geometry optimization using default procedure for command CCSD

 Geometry written to block  1 of record 700

 Entering BMAT geometry-optimization, modelhes=F
 Optimization method: RF

 ITER.   ENERGY(OLD)    ENERGY(NEW)      DE          GRADMAX     GRADNORM    GRADRMS     STEPMAX     STEPLEN     STEPRMS   CPU-time
   1  -115.45766339  -115.45840535    -0.00074196  0.01585427  0.02231562  0.00525984  0.05913061  0.10088401  0.04118572     63.70
   2  -115.45840535  -115.45844008    -0.00003473  0.00205474  0.00326131  0.00076870  0.01858455  0.02281120  0.00931263    148.66
   3  -115.45844008  -115.45844212    -0.00000203  0.00055214  0.00082261  0.00019389  0.00490495  0.00705846  0.00288160    426.27
   4  -115.45844212  -115.45844219    -0.00000007  0.00012168  0.00020510  0.00004834  0.00037729  0.00081106  0.00033111    720.34
   5  -115.45844219  -115.45844219    -0.00000001  0.00005318  0.00007163  0.00001688  0.00013081  0.00032522  0.00013277   1014.92
   6  -115.45844219  -115.45844219     0.00000000  0.00000849  0.00000952  0.00000224  0.00001685  0.00002989  0.00001220   1345.08
   7  -115.45844219  -115.45844219    -0.00000000  0.00000294  0.00000352  0.00000083  0.00000700  0.00001423  0.00000581   1676.08
   8  -115.45844219  -115.45844219    -0.00000000  0.00000045  0.00000066  0.00000015  0.00000275  0.00000509  0.00000208   2004.59
   9  -115.45844219  -115.45844219     0.00000000  0.00000007  0.00000015  0.00000003  0.00000179  0.00000275  0.00000112   2335.55

 END OF GEOMETRY OPTIMIZATION.

 Geometry written to block  1 of record 700

 Recomputing wavefunction for reoriented structure

 Current geometry (xyz format, in Angstrom)

    6
 CCSD/6-311G(D,P)  ENERGY=-115.45844219
 H          0.0000074637        1.0141492249        1.0995014627
 C         -0.0000000166       -0.0123326849        0.7250376127
 H          0.8933769227       -0.5202043858        1.1156983801
 H         -0.8933839281       -0.5201917663        1.1156988890
 O         -0.0000000112        0.0636021086       -0.6898965550
 H         -0.0000000831       -0.8363212614       -1.0146414905

 **********************************************************************************************************************************


 **********************************************************************************************************************************
 DATASETS  * FILE   NREC   LENGTH (MB)   RECORD NAMES
              1      20       40.79       500      610      700      900      950      970     1000      129      960     1100   
                                          VAR    BASINP    GEOM    SYMINP    ZMAT    AOBASIS   BASIS     P2S    ABASIS      S 
                                         1400     1410     1200     1210     1080     1600     1650     1700     1380    55555   
                                           T        V       H0       H01     AOSYM     SMH    MOLCAS    OPER     JKOP     CCSD   

              2       6        0.60       700     1000      520     2100     8500     9001   
                                         GEOM     BASIS   MCVARS     RHF     CPHF    DEN_MP2    

 PROGRAMS   *        TOTAL      OPTG      CCSD    HF-SCF       INT
 CPU TIMES  *      2682.43   2622.86     58.75      0.36      0.30
 REAL TIME  *      3838.97 SEC
 DISK USED  *        41.49 MB (local),      283.83 MB (total)
 SF USED    *        63.77 MB
 GA USED    *         0.00 MB       (max)       0.00 MB       (current)
 **********************************************************************************************************************************


 PROGRAM * HESSIAN

 Computing numerical hessian using default procedure for command CCSD

 Using no symmetry in wavefunction calculations

 Running default procedure: HF-SCF000  CCSD


 Numerically approximating hessian using central gradient differences

 Task list generated. Total number of displacements:     36


 Switching to mppx mode, nproc=  6

   25 tasks completed, CPU=1h 6m 48s Elapsed=1h 6m 21s

 All  36 tasks completed.  CPU=   4167.53 sec, Elapsed=   4064.02 sec.

 Switching back to mpp mode, nproc=  6


 CCSD hessian saved to record  5300.2

 PROGRAM * FREQUENCIES (Calculation of harmonic vibrational spectra for CCSD)


 Permanent Dipole Moment [debye]
 1-3    0.000001   -1.482152    0.920689

 Dipole Moment Norm    1.7448330 [debye]

 Dipole Moment Derivatives [debye/ang]
              1             2             3             4             5             6             7             8
    1    0.27739449   -0.00000648   -0.00000079    2.07829409   -0.00000156   -0.00000529   -0.66667384    0.45901285
    2   -0.00000753   -0.62723369   -0.17442604   -0.00000128    1.47366901   -0.19698855    0.45621003   -0.07139363
    3   -0.00000277   -0.37335347   -0.01578105   -0.00000144    0.09266359    3.87504565   -0.40988772    0.28707132
              9            10            11            12            13            14            15            16
    1   -0.25131525   -0.66668675   -0.45900450    0.25131837   -2.74059810    0.00000058    0.00000332    1.71823064
    2    0.10773897   -0.45620175   -0.07138233    0.10773631    0.00000319   -1.20370961    0.04362498   -0.00000267
    3   -0.38879871    0.40989278    0.28706586   -0.38879976   -0.00000042   -0.20919479   -4.30362833   -0.00000043
             17            18
    1   -0.00000089   -0.00000037
    2    0.49981162    0.11243005
    3   -0.08431593    1.22201814

 Projecting out rotations and translations

 Force Constants (Second Derivatives of the Energy) in [a.u.]
                             HX1         HY1         HZ1         CX2         CY2     
           HX1           0.0480608
           HY1           0.0000020   0.3162872
           HZ1           0.0000006   0.0905180   0.0955013
           CX2          -0.0525405  -0.0000018  -0.0000005   0.5706200
           CY2          -0.0000018  -0.2992644  -0.0689717   0.0000001   0.6166419
           CZ2          -0.0000006  -0.0831498  -0.0734293   0.0000000   0.0159378
           HX3           0.0010438  -0.0007155   0.0007969  -0.2269956   0.0972660
           HY3           0.0269028  -0.0127911   0.0092426   0.0960943  -0.1104589
           HZ3           0.0085563  -0.0038113   0.0051866  -0.0595386   0.0319210
           HX4           0.0010435   0.0007153  -0.0007967  -0.2269982  -0.0972643
           HY4          -0.0269030  -0.0127907   0.0092426  -0.0960926  -0.1104562
           HZ4          -0.0085563  -0.0038112   0.0051867   0.0595391   0.0319202
           OX5           0.0019634   0.0000001  -0.0000002  -0.0641674   0.0000000
           OY5           0.0000000   0.0060848  -0.0398361  -0.0000000  -0.0976238
           OZ5           0.0000000  -0.0011627  -0.0240847  -0.0000000   0.0356253
           HX6           0.0004290  -0.0000000  -0.0000001   0.0000817  -0.0000001
           HY6           0.0000000   0.0024742  -0.0001953  -0.0000000   0.0011614
           HZ6           0.0000000   0.0014169  -0.0083607  -0.0000000  -0.0464326
                             CZ2         HX3         HY3         HZ3         HX4     
           CZ2           0.5088959
           HX3          -0.0627959   0.2390459
           HY3           0.0355673  -0.1074766   0.1097611
           HZ3          -0.0749076   0.0740026  -0.0432769   0.0930509
           HX4           0.0627964  -0.0220493  -0.0138498   0.0071671   0.2390488
           HY4           0.0355664   0.0138503   0.0086158  -0.0046518   0.1074747
           HZ4          -0.0749076  -0.0071671  -0.0046517   0.0060677  -0.0740033
           OX5           0.0000001   0.0090268  -0.0002770  -0.0299359   0.0090269
           OY5          -0.0132889  -0.0028206   0.0042058   0.0181407   0.0028205
           OZ5          -0.2632736  -0.0039248   0.0034275  -0.0310544   0.0039249
           HX6          -0.0000000  -0.0000717  -0.0013937  -0.0002515  -0.0000717
           HY6           0.0093671  -0.0001036   0.0006674   0.0016783   0.0001036
           HZ6          -0.0223779  -0.0009117  -0.0003088   0.0016567   0.0009116
                             HY4         HZ4         OX5         OY5         OZ5     
           HY4           0.1097580
           HZ4          -0.0432759   0.0930510
           OX5           0.0002769   0.0299362   0.0478239
           OY5           0.0042058   0.0181403  -0.0000000   0.5797967
           OZ5           0.0034275  -0.0310544  -0.0000001   0.1360468   0.4438590
           HX6           0.0013937   0.0002515  -0.0036737   0.0000001   0.0000001
           HY6           0.0006673   0.0016783  -0.0000000  -0.4966692  -0.1773645
           HZ6          -0.0003088   0.0016566  -0.0000000  -0.1192028  -0.0943919
                             HX6         HY6         HZ6     
           HX6           0.0033064
           HY6           0.0000000   0.4916990
           HZ6           0.0000000   0.1648361   0.1218172


 Atomic Masses
 1-6    1.007825   12.000000    1.007825    1.007825   15.994910    1.007825

 Mass weighted Second Derivative Matrix
                             HX1         HY1         HZ1         CX2         CY2     
           HX1           0.0476877
           HY1           0.0000019   0.3138315
           HZ1           0.0000006   0.0898152   0.0947599
           CX2          -0.0151081  -0.0000005  -0.0000001   0.0475517
           CY2          -0.0000005  -0.0860542  -0.0198330   0.0000000   0.0513868
           CZ2          -0.0000002  -0.0239099  -0.0211148   0.0000000   0.0013282
           HX3           0.0010357  -0.0007100   0.0007907  -0.0652731   0.0279691
           HY3           0.0266940  -0.0126918   0.0091708   0.0276321  -0.0317627
           HZ3           0.0084899  -0.0037817   0.0051464  -0.0171205   0.0091790
           HX4           0.0010354   0.0007098  -0.0007906  -0.0652739  -0.0279686
           HY4          -0.0266942  -0.0126914   0.0091708  -0.0276316  -0.0317619
           HZ4          -0.0084899  -0.0037816   0.0051464   0.0171206   0.0091787
           OX5           0.0004890   0.0000000  -0.0000000  -0.0046316   0.0000000
           OY5           0.0000000   0.0015155  -0.0099219  -0.0000000  -0.0070465
           OZ5           0.0000000  -0.0002896  -0.0059987  -0.0000000   0.0025714
           HX6           0.0004256  -0.0000000  -0.0000001   0.0000235  -0.0000000
           HY6           0.0000000   0.0024549  -0.0001938  -0.0000000   0.0003340
           HZ6           0.0000000   0.0014059  -0.0082958  -0.0000000  -0.0133518
                             CZ2         HX3         HY3         HZ3         HX4     
           CZ2           0.0424080
           HX3          -0.0180571   0.2371899
           HY3           0.0102275  -0.1066421   0.1089089
           HZ3          -0.0215399   0.0734281  -0.0429409   0.0923284
           HX4           0.0180573  -0.0218781  -0.0137423   0.0071114   0.2371928
           HY4           0.0102272   0.0137428   0.0085489  -0.0046157   0.1066402
           HZ4          -0.0215398  -0.0071115  -0.0046156   0.0060206  -0.0734287
           OX5           0.0000000   0.0022483  -0.0000690  -0.0074561   0.0022483
           OY5          -0.0009592  -0.0007025   0.0010475   0.0045183   0.0007025
           OZ5          -0.0190032  -0.0009775   0.0008537  -0.0077346   0.0009776
           HX6          -0.0000000  -0.0000711  -0.0013829  -0.0002495  -0.0000711
           HY6           0.0026935  -0.0001028   0.0006622   0.0016653   0.0001028
           HZ6          -0.0064348  -0.0009046  -0.0003064   0.0016438   0.0009046
                             HY4         HZ4         OX5         OY5         OZ5     
           HY4           0.1089059
           HZ4          -0.0429399   0.0923285
           OX5           0.0000690   0.0074561   0.0029899
           OY5           0.0010475   0.0045181  -0.0000000   0.0362488
           OZ5           0.0008537  -0.0077346  -0.0000000   0.0085056   0.0277500
           HX6           0.0013829   0.0002496  -0.0009150   0.0000000   0.0000000
           HY6           0.0006621   0.0016653  -0.0000000  -0.1237040  -0.0441757
           HZ6          -0.0003064   0.0016438  -0.0000000  -0.0296895  -0.0235099
                             HX6         HY6         HZ6     
           HX6           0.0032807
           HY6           0.0000000   0.4878814
           HZ6           0.0000000   0.1635562   0.1208714


 Mass Weighted 2nd Derivative Matrix Eigenvalues
 1-10    0.000000    0.000000    0.000000    0.000000    0.000000    0.000000    0.004423    0.045411    0.047127    0.054295
 11-18    0.076087    0.087077    0.087341    0.089394    0.345749    0.357695    0.374779    0.584125

 Mass Weighted 2nd Derivative Matrix Eigenvectors
              1             2             3             4             5             6             7             8
    1    0.01628023   -0.02589303   -0.06250031    0.10741520    0.09205226    0.57293905    0.28763728    0.00000029
    2   -0.06900764   -0.00797307   -0.00126051    0.25178019    0.12934858   -0.06652635   -0.00000206   -0.10164718
    3    0.11560014    0.03912999    0.10982300   -0.21263519    0.08497740    0.03667519    0.00000069    0.52029816
    4   -0.38479139    0.12539025    0.50675894    0.10222853   -0.14247557    0.48439529    0.00740478    0.00000023
    5   -0.05314588    0.00700935    0.08982713    0.70552363    0.36556127   -0.17937989    0.00000054    0.18687081
    6   -0.10814907    0.04038838    0.12078629   -0.28614659    0.51464840   -0.01096522    0.00000037    0.37409823
    7   -0.20901914   -0.01195894    0.32263504    0.00116507   -0.11834798   -0.01357669   -0.10013415   -0.02812810
    8   -0.20194436    0.00100226    0.22061990    0.19179911    0.00803816   -0.40963444   -0.21571701   -0.16967570
    9   -0.05087380    0.12081489   -0.11399414   -0.03430306    0.19808956   -0.11606289   -0.05036342   -0.13326658
   10   -0.20901732   -0.01195915    0.32263195    0.00116596   -0.11834627   -0.01357179   -0.10013079    0.02812755
   11    0.05929502   -0.01781410   -0.22550761    0.31585624    0.25268710    0.27533242    0.21571822   -0.16967729
   12   -0.15721285   -0.12454362    0.10996718   -0.00319819    0.16369994    0.07027182    0.05036327   -0.13326237
   13   -0.06453741    0.91563096   -0.19701466    0.04089434   -0.01458093    0.08736941   -0.24418853    0.00000014
   14    0.74555737    0.15869035    0.51457248    0.10225404    0.06966844    0.01175570   -0.00000023   -0.00072282
   15   -0.08155548    0.05471116    0.16149959   -0.36858702    0.57525929   -0.00091443   -0.00000046   -0.49069247
   16   -0.12844877    0.28390936    0.13453860   -0.05787129   -0.12063019   -0.35692695    0.85987662   -0.00000108
   17    0.23363440    0.04850999    0.15283649   -0.01536825   -0.00281306    0.01555930   -0.00000010   -0.20094175
   18   -0.14929636   -0.01030970   -0.02505598    0.02119552    0.20065681   -0.03516955    0.00000000    0.41018151
              9            10            11            12            13            14            15            16
    1   -0.00000093   -0.24497959   -0.00000034    0.70959836   -0.00005132    0.00000407    0.00000209   -0.02464505
    2    0.08123825    0.00000085    0.00283960   -0.00002340   -0.25888095    0.03996518    0.27468869    0.00000167
    3   -0.20964293    0.00000451   -0.33030668    0.00004357    0.61765394   -0.11385033    0.09362891    0.00000054
    4    0.00000097    0.42243777   -0.00000061   -0.19799976    0.00001313   -0.00000003    0.00000133   -0.31033383
    5   -0.18515647    0.00000005   -0.37481843   -0.00000417   -0.07138367    0.12097479    0.09633852    0.00000212
    6    0.55870575   -0.00000170   -0.07269783   -0.00002169   -0.32498090   -0.19633797   -0.14432292   -0.00000034
    7    0.02792066   -0.16921761    0.10825557    0.05997084    0.01256433   -0.39699669    0.55104791    0.54371544
    8    0.11976671   -0.08244977    0.19123055    0.37252296    0.31706835   -0.36430128   -0.30142377   -0.32388587
    9    0.30054924    0.56671613    0.12228562    0.29267495    0.34147888    0.40465393    0.21973175    0.22586042
   10   -0.02792098   -0.16921571   -0.10825352    0.05995944   -0.01256800    0.39699241   -0.55105451    0.54371772
   11    0.11976806    0.08244856    0.19123285   -0.37247554    0.31712045   -0.36431084   -0.30141744    0.32387700
   12    0.30054247   -0.56672147    0.12228202   -0.29263168    0.34151999    0.40465024    0.21973304   -0.22585986
   13   -0.00000056   -0.21982816   -0.00000008   -0.03416013    0.00000230    0.00000008   -0.00000003    0.00153653
   14    0.05488090    0.00000011    0.27937243   -0.00000269   -0.03527673    0.07646252   -0.00061675   -0.00000005
   15   -0.48787397    0.00000140   -0.09126867   -0.00000170   -0.02936528   -0.03611827   -0.00776470    0.00000002
   16    0.00000016    0.00149063    0.00000069   -0.01021786    0.00000051    0.00000000    0.00000005    0.00193707
   17    0.09949801   -0.00000024   -0.20491023    0.00000109    0.01154630   -0.03340391   -0.00181880    0.00000010
   18   -0.37573815    0.00000112    0.70018897   -0.00000521   -0.06227921    0.12592357   -0.00415602   -0.00000002
             17            18
    1    0.00000630    0.00000008
    2    0.86572655    0.01139942
    3    0.30376537    0.00187302
    4   -0.00000180    0.00000000
    5   -0.29448834   -0.00736234
    6   -0.05322155    0.00327838
    7   -0.15902674   -0.00083895
    8    0.07125910    0.00054838
    9   -0.06221879    0.00308846
   10    0.15902663    0.00083885
   11    0.07125616    0.00054826
   12   -0.06221843    0.00308846
   13    0.00000003    0.00000000
   14    0.00532136   -0.22482863
   15    0.00041936   -0.09019649
   16   -0.00000008    0.00000002
   17   -0.01327160    0.90858260
   18    0.00264894    0.33996301

   Low Vibration      Wavenumber
        Nr             [1/cm] 
        1                0.00
        2                0.00
        3                0.00
        4                0.00
        5                0.00
        6                0.00

     Vibration        Wavenumber
        Nr             [1/cm] 
        1              341.86
        2             1095.43
        3             1115.94
        4             1197.80
        5             1417.94
        6             1516.90
        7             1519.19
        8             1536.94
        9             3022.63
       10             3074.40
       11             3146.96
       12             3928.77

 FREQUENCIES * CALCULATION OF NORMAL MODES FOR CCSD


 Atomic Coordinates

  Nr  Atom  Charge       X              Y              Z

   1   H     1.00    0.000014104    1.916464285    2.077756638
   2   C     6.00   -0.000000031   -0.023305397    1.370122518
   3   H     1.00    1.688237710   -0.983043818    2.108364376
   4   H     1.00   -1.688250948   -0.983019971    2.108365338
   5   O     8.00   -0.000000021    0.120190566   -1.303715543
   6   H     1.00   -0.000000157   -1.580418136   -1.917394532

 Gradient norm at reference geometry: 0.27928D-06

 Normal Modes

                              1 A         2 A         3 A         4 A         5 A  
 Wavenumbers [cm-1]          341.86     1095.43     1115.94     1197.80     1417.94
 Intensities [km/mol]        119.82       98.61        9.22        1.77       27.04
 Intensities [relative]      100.00       82.29        7.70        1.48       22.56
           HX1              0.28652     0.00000    -0.00000    -0.24403    -0.00000
           HY1             -0.00000    -0.10125     0.08092     0.00000     0.00283
           HZ1              0.00000     0.51827    -0.20883     0.00000    -0.32902
           CX2              0.00214     0.00000     0.00000     0.12195    -0.00000
           CY2              0.00000     0.05394    -0.05345     0.00000    -0.10820
           CZ2              0.00000     0.10799     0.16128    -0.00000    -0.02099
           HX3             -0.09974    -0.02802     0.02781    -0.16856     0.10783
           HY3             -0.21488    -0.16902     0.11930    -0.08213     0.19049
           HZ3             -0.05017    -0.13275     0.29938     0.56451     0.12181
           HX4             -0.09974     0.02802    -0.02781    -0.16856    -0.10783
           HY4              0.21488    -0.16902     0.11930     0.08213     0.19049
           HZ4              0.05017    -0.13274     0.29937    -0.56452     0.12181
           OX5             -0.06106     0.00000    -0.00000    -0.05497    -0.00000
           OY5             -0.00000    -0.00018     0.01372     0.00000     0.06985
           OZ5             -0.00000    -0.12269    -0.12199     0.00000    -0.02282
           HX6              0.85653    -0.00000     0.00000     0.00148     0.00000
           HY6             -0.00000    -0.20016     0.09911    -0.00000    -0.20411
           HZ6             -0.00000     0.40859    -0.37428     0.00000     0.69747

                              6 A         7 A         8 A         9 A        10 A  
 Wavenumbers [cm-1]         1516.90     1519.19     1536.94     3022.63     3074.40
 Intensities [km/mol]          1.65        7.65        3.89       55.32       73.87
 Intensities [relative]        1.38        6.39        3.25       46.17       61.65
           HX1              0.70684    -0.00005     0.00000     0.00000    -0.02455
           HY1             -0.00002    -0.25787     0.03981     0.27362     0.00000
           HZ1              0.00004     0.61525    -0.11341     0.09326     0.00000
           CX2             -0.05716     0.00000    -0.00000     0.00000    -0.08959
           CY2             -0.00000    -0.02061     0.03492     0.02781     0.00000
           CZ2             -0.00001    -0.09381    -0.05668    -0.04166    -0.00000
           HX3              0.05974     0.01252    -0.39545     0.54890     0.54160
           HY3              0.37107     0.31584    -0.36288    -0.30025    -0.32263
           HZ3              0.29154     0.34015     0.40308     0.21888     0.22498
           HX4              0.05973    -0.01252     0.39545    -0.54891     0.54160
           HY4             -0.37103     0.31589    -0.36289    -0.30025     0.32262
           HZ4             -0.29149     0.34019     0.40308     0.21888    -0.22498
           OX5             -0.00854     0.00000     0.00000    -0.00000     0.00038
           OY5             -0.00000    -0.00882     0.01912    -0.00015    -0.00000
           OZ5             -0.00000    -0.00734    -0.00903    -0.00194     0.00000
           HX6             -0.01018     0.00000     0.00000     0.00000     0.00193
           HY6              0.00000     0.01150    -0.03327    -0.00181     0.00000
           HZ6             -0.00001    -0.06204     0.12543    -0.00414    -0.00000

                             11 A        12 A  
 Wavenumbers [cm-1]         3146.96     3928.77
 Intensities [km/mol]         34.86       20.94
 Intensities [relative]       29.09       17.48
           HX1              0.00001     0.00000
           HY1              0.86236     0.01136
           HZ1              0.30258     0.00187
           CX2             -0.00000     0.00000
           CY2             -0.08501    -0.00213
           CZ2             -0.01536     0.00095
           HX3             -0.15841    -0.00084
           HY3              0.07098     0.00055
           HZ3             -0.06198     0.00308
           HX4              0.15841     0.00084
           HY4              0.07098     0.00055
           HZ4             -0.06198     0.00308
           OX5              0.00000    -0.00000
           OY5              0.00133    -0.05622
           OZ5              0.00010    -0.02255
           HX6             -0.00000     0.00000
           HY6             -0.01322     0.90505
           HZ6              0.00264     0.33864


 Normal Modes of low/zero frequencies

                                  1           2           3           4           5
 Wavenumbers [cm-1]            0.00        0.00        0.00        0.00        0.00
 Intensities [km/mol]          0.00        0.00        0.00        0.00        0.00
 Intensities [relative]        0.00        0.00        0.00        0.00        0.00
           HX1              0.01622    -0.02579    -0.06226     0.10700     0.09169
           HY1             -0.06874    -0.00794    -0.00126     0.25080     0.12885
           HZ1              0.11515     0.03898     0.10940    -0.21181     0.08465
           CX2             -0.11108     0.03620     0.14629     0.02951    -0.04113
           CY2             -0.01534     0.00202     0.02593     0.20367     0.10553
           CZ2             -0.03122     0.01166     0.03487    -0.08260     0.14857
           HX3             -0.20821    -0.01191     0.32138     0.00116    -0.11789
           HY3             -0.20116     0.00100     0.21976     0.19105     0.00801
           HZ3             -0.05068     0.12034    -0.11355    -0.03417     0.19732
           HX4             -0.20820    -0.01191     0.32138     0.00116    -0.11789
           HY4              0.05906    -0.01774    -0.22463     0.31463     0.25170
           HZ4             -0.15660    -0.12406     0.10954    -0.00319     0.16306
           OX5             -0.01614     0.22894    -0.04926     0.01023    -0.00365
           OY5              0.18642     0.03968     0.12866     0.02557     0.01742
           OZ5             -0.02039     0.01368     0.04038    -0.09216     0.14384
           HX6             -0.12795     0.28281     0.13402    -0.05765    -0.12016
           HY6              0.23273     0.04832     0.15224    -0.01531    -0.00280
           HZ6             -0.14872    -0.01027    -0.02496     0.02111     0.19988

                                  6
 Wavenumbers [cm-1]            0.00
 Intensities [km/mol]          0.00
 Intensities [relative]        0.00
           HX1              0.57071
           HY1             -0.06627
           HZ1              0.03653
           CX2              0.13983
           CY2             -0.05178
           CZ2             -0.00317
           HX3             -0.01352
           HY3             -0.40804
           HZ3             -0.11561
           HX4             -0.01352
           HY4              0.27426
           HZ4              0.07000
           OX5              0.02185
           OY5              0.00294
           OZ5             -0.00023
           HX6             -0.35554
           HY6              0.01550
           HZ6             -0.03503


 Frequencies dumped to record   5400.2

 Zero point energy:  0.05220371 [H]    11457.39 [1/CM]      137.06 [KJ/MOL]
 Frequency information read from record  5400.2

 Recomputing wavefunction at initial geometry


 **********************************************************************************************************************************
 DATASETS  * FILE   NREC   LENGTH (MB)   RECORD NAMES
              1      20       40.79       500      610      700      900      950      970     1000      129      960     1100   
                                          VAR    BASINP    GEOM    SYMINP    ZMAT    AOBASIS   BASIS     P2S    ABASIS      S 
                                         1400     1410     1200     1210     1080     1600     1650     1700     1380    55555   
                                           T        V       H0       H01     AOSYM     SMH    MOLCAS    OPER     JKOP     CCSD   

              2       9        0.61       700     1000      520     2100     8500     9001     5300     5450     5400   
                                         GEOM     BASIS   MCVARS     RHF     CPHF    DEN_MP2   HESS     NMOD     FREQ   

 PROGRAMS   *        TOTAL      FREQ      OPTG      CCSD    HF-SCF       INT
 CPU TIMES  *      6891.26   4208.81   2622.86     58.75      0.36      0.30
 REAL TIME  *      7933.14 SEC
 DISK USED  *       110.18 MB (local),      694.26 MB (total)
 SF USED    *        63.78 MB
 GA USED    *         0.00 MB       (max)       0.00 MB       (current)
 **********************************************************************************************************************************

 Dump information in style MOLDEN to methanol_ccsd.molden                                                            

 Molecular orbitals read from record     2100.2  Type=RHF/CANONICAL (state 1.1)
 Occupation numbers read from record     2100.2  Type=RHF/RHF (state 1.1)
 Orbital energies read from record       2100.2  Type=RHF/CANONICAL (state 1.1)
 Redundancy group numbers read from rec  2100.2  Type=RHF/RHF (state 1.1)

 DUMP ORBITAL  1.1 AS ORBITAL    1  occ=    2.0000  eig=  -20.5454  GROUP=   2
 DUMP ORBITAL  2.1 AS ORBITAL    2  occ=    2.0000  eig=  -11.2712  GROUP=   2
 DUMP ORBITAL  3.1 AS ORBITAL    3  occ=    2.0000  eig=   -1.3543  GROUP=   2
 DUMP ORBITAL  4.1 AS ORBITAL    4  occ=    2.0000  eig=   -0.9214  GROUP=   2
 DUMP ORBITAL  5.1 AS ORBITAL    5  occ=    2.0000  eig=   -0.6873  GROUP=   2
 DUMP ORBITAL  6.1 AS ORBITAL    6  occ=    2.0000  eig=   -0.6164  GROUP=   2
 DUMP ORBITAL  7.1 AS ORBITAL    7  occ=    2.0000  eig=   -0.5888  GROUP=   2
 DUMP ORBITAL  8.1 AS ORBITAL    8  occ=    2.0000  eig=   -0.5001  GROUP=   2
 DUMP ORBITAL  9.1 AS ORBITAL    9  occ=    2.0000  eig=   -0.4465  GROUP=   2

 Total charge:      18.000000
 Frequency information read from record  5400.2

 **********************************************************************************************************************************

 CCSD/6-311G(D,P) energy=   -115.458442194799

      OPTG(CCSD)            CCSD          HF-SCF
   -115.45844219   -115.45766339   -115.07498331
 **********************************************************************************************************************************
 Molpro calculation terminated
