[Molden Format]
[Molpro variables]
_NUMVAR=  1059.000000000000    
_AVOGAD= 0.6022140760000000E+24
_BOLTZ= 0.1380649000000000E-22
_CLIGHTSI=  299792458.0000000    
_JOULE= 0.4359744722207100E-17
_JPCAL=  4.184000000000000    
_PLANCK= 0.6626070150000000E-33
_BOHR= 0.5291772109030000E-10
_ECHARG= 0.1602176634000000E-18
_ENULL= 0.8854187812800001E-11
_MU= 0.1660539066600000E-26
_EMASS= 0.9109383701500001E-30
_AMU2AU=  1822.888486217313    
_CLIGHT=  29979245800.00000    
_EV= 0.3674932217565494E-01
_KJOULE= 0.3808798847133432E-03
_KJOULE/MOL= 0.3808798847133432E-03
_CM= 0.4556335252912009E-05
_CM-1= 0.4556335252912009E-05
_DEB2SI= 0.3335640951981520E-29
_KCAL= 0.1593601437640628E-02
_KCAL/MOL= 0.1593601437640628E-02
_KELVIN= 0.3166811563455608E-05
_HERTZ= 0.1519829846057038E-15
_HZ= 0.1519829846057038E-15
_TOA= 0.5291772109030000    
_TOANG= 0.5291772109030000    
_TORAD= 0.1745329251994330E-01
_TOCM=  219474.6313631965    
_TODEBYE=  2.541746473194078    
_TOE= 0.4803204712570263E-09
_TOEV=  27.21138624598803    
_TOHERTZ=  6579683920501656.    
_TOHZ=  6579683920501656.    
_TOK=  315775.0248040668    
_TOKCAL=  627.5094740630558    
_TOKELVIN=  315775.0248040668    
_TOKJ=  2625.499639479825    
_TOKJOULE=  2625.499639479825    
_TOKG= 0.1660539066600000E-26
_ANG=  1.889726124625770    
_ANGSTROM=  1.889726124625770    
_RPAREF=  0.000000000000000    
_RPADISS=  0.000000000000000    
_IGNORE_UNDEF=  2.000000000000000    
_STRICTCHECK=  0.000000000000000    
!SEWARD=  0.000000000000000    
!MULTI=  0.000000000000000    
!DFMULTI=  0.000000000000000    
_SEW_ONEEL=  0.000000000000000    
_CPPDONE=FALSE
_DKROLL_DONE=  0.000000000000000    
_FNUC_DONE=  0.000000000000000    
_FOCKDONE=TRUE
_GRADONE=FALSE
_HESSDONE=TRUE
_INTDONE=TRUE
_SCFDONE=TRUE
_MODUL_BLOCK=FALSE
_MODUL_SLATER=FALSE
_MODUL_MRCC=FALSE
_MODUL_NBO6=FALSE
_MODUL_NECI=FALSE
_MODUL_AIMS=TRUE
_MODUL_HDF5=FALSE
_MODUL_GECCO=FALSE
_ISWINDOWS=FALSE
_MRCC_EXEC=
_FITC_AO_SAVED=FALSE
_FITC_MO_SAVED=FALSE
_SHARED_FS=TRUE
_LSTYP=SEWARD
_INTYP=INTS
_GEOMTYP=ZMAT
_GRADTYP=ALASKA
_DIRECT=FALSE
_DKHO= -1.000000000000000    
_FNUC=  0.000000000000000    
_SYNCM=  0.000000000000000    
_BASIS=6-311G(D,P)
_ZCENTRE=MASS
_ZORIENT=  1.000000000000000    
_NELEC=  18.00000000000000    
!SPIN=  0.000000000000000    
_OPTCONV= 0.2753693412616622E-05
_QSDSTEP=  0.000000000000000    
_QSDIRC=  0.000000000000000    
_PROGRAM=FREQ
_CPUSTEP=  0.000000000000000    
_SYSSTEP=  0.000000000000000    
_WALLSTEP= 0.1000000000000000E-01
!DFMP2=  0.000000000000000    
!DFSCF=  0.000000000000000    
!SCSGRD=  0.000000000000000    
_NCEN=  6.000000000000000    
_CPUTOT=  6891.260000000000    
_CPUCCSD=  0.000000000000000    
_SYSCCSD=  0.000000000000000    
_WALLCCSD=  0.000000000000000    
_CPUF12=  0.000000000000000    
_SYSF12=  0.000000000000000    
_WALLF12=  0.000000000000000    
_CPUF12B=  0.000000000000000    
_SYSF12B=  0.000000000000000    
_WALLF12B=  0.000000000000000    
_CPUTRANS=  0.000000000000000    
_SYSTRANS=  0.000000000000000    
_WALLTRANS=  0.000000000000000    
_DFTEXFAC=  1.000000000000000    
_DMX= 0.3660142054618901E-06
_DMY=-0.5831233174547861    
_DMZ= 0.3622269601277233    
_DMX_SCF= 0.3113286067273335E-06
_DMY_SCF=-0.6202928442805196    
_DMZ_SCF= 0.4174984645689435    
_FREQUENCIES= 0.1366754132705680E-04
_HOMO=  9.100000000000000    
_EHOMO=-0.4464948341396782    
_LUMO=  10.10000000000000    
_ELUMO= 0.1536838345816855    
_ENERGC= -115.4584421947989    
_ENERGR= -115.0748684028397    
_ENERGY= -115.4584421947989    
_ENERGY_METHOD=CCSD
_ENERGY_BASIS=6-311G(D,P)
_GEOMETRY_METHOD=
_GEOMETRY_BASIS=
_ENUC=  40.34274679852965    
_FREQSTEP=  37.00000000000000    
_GRADENERG= -115.4584420293033    
_GRADEXFAC=  9999.000000000000    
_GRADMETHOD=  12.00000000000000    
_NMRMETHOD=  0.000000000000000    
_NMRMAGNET=  0.000000000000000    
_GRADRECORD=TRUE
_VIRIAL= 0.2633875491055673E-04
!GRID_FREEZE= -1.000000000000000    
!NEESE_INDEX=  0.000000000000000    
_ITERATIONS=  10.00000000000000    
_LASTNELEC=  18.00000000000000    
_LASTSPIN=  0.000000000000000    
_LASTSYM=  1.000000000000000    
_MPP_PROG=  1.000000000000000    
_MSNSTATES=  0.000000000000000    
_RS2PHASE=  0.000000000000000    
_IPROC_MPP=  0.000000000000000    
_IPROC_MPPX=  0.000000000000000    
_NPROC_MPP=  6.000000000000000    
_NPROC_MPPX=  6.000000000000000    
_NPROC_SMP=  6.000000000000000    
_NUMSTEP=  0.000000000000000    
_OPTCONVMX= 0.1786518289463201E-05
_OPTCONVRMS= 0.1124190628145839E-05
_OPTGRAD= 0.1477881654480098E-06
_OPTGRADMX= 0.7003570257069214E-07
_OPTGRADRMS= 0.3483400465580238E-07
_OPTSTEP=  9.000000000000000    
_ORBITAL=  2100.200000000000    
_PI=  3.141592653589793    
_SEIG_MIN= 0.8973575559595003E-02
_SEWPROP=TRUE
_STATUS= -1.000000000000000    
_SYSTOT=  39.71000000000000    
_VERSION=  2022003.000000000    
_WALLTOT=  7933.140000000000    
_ZPE= 0.5220370526019664E-01
_DATE=27-Aug-25
_LASTORB=0
_METHODC=CCSD
_OUTPUT=/home/lme/overlap_integral_gaussian/molpro_files/methanol/ccsd/methanol_ccsd.out
_PGROUP=C1
_TIME=09:12:18
_LIBMOL=/usr/local/molpro/molpro_2022.3.0_sockets/lib/
_VIGRDC=  0.000000000000000    
!VIBCNT=  0.000000000000000    
!RGHFCNT=  0.000000000000000    
!SURFREC=  0.000000000000000    
!XSURFREC=  0.000000000000000    
!XPOLYREC=  0.000000000000000    
!ROTREC=  0.000000000000000    
!POLYREC=  0.000000000000000    
!DIPREC=  0.000000000000000    
!DIP4DREC=  0.000000000000000    
!DIPROT=  0.000000000000000    
!DIP4DROT=  0.000000000000000    
!PTREC=  0.000000000000000    
!PT4DREC=  0.000000000000000    
!VSCFREC=  0.000000000000000    
!VCIREC=  0.000000000000000    
!PVCIREC=  0.000000000000000    
!VMP2REC=  0.000000000000000    
!VMCSCFREC=  0.000000000000000    
!VMRCIREC=  0.000000000000000    
!VIBSTATEREC=  0.000000000000000    
!VIBSTATECNT=  0.000000000000000    
!VIBINFO=  0.000000000000000    
!GAREC=  0.000000000000000    
!SCFORB=  21002.00000000000    
!CIOCC=  9.000000000000000    
!CICORE=  2.000000000000000    
!DEFCORE=  2.000000000000000    
!SCORE=  0.000000000000000    
!CICLOS=  9.000000000000000    
!CIISTSYM=  1.000000000000000    
!CIISTMS2=  0.000000000000000    
!CIISTNEL=  14.00000000000000    
!NEWMOL= -1.000000000000000    
!NEWSYM= -1.000000000000000    
_SLFILES=slscratch
_NGSSTO=  9.000000000000000    
_SIN=SIN
_COS=COS
_TAN=TAN
_ACOS=ACOS
_ASIN=ASIN
_ATAN=ATAN
_COSH=COSH
_SINH=SINH
_TANH=TANH
_ABS=ABS
_MOD=MOD
_ERF=ERF
_REFC=REFC
_ERFC=ERFC
_HYPOT=HYPOT
_J0=J0
_J1=J1
_JN=JN
_GAMMA=GAMMA
_LGAMMA=LGAMMA
_Y0=Y0
_Y1=Y1
_YN=YN
_EXP=EXP
_LOG=LOG
_LOG10=LOG10
_SQRT=SQRT
_INT=INT
_NINT=NINT
_MAX=MAX
_MIN=MIN
_COSMO=  0.000000000000000    
_COSMOIT=  0.000000000000000    
_COSMOES=  0.000000000000000    
_COSMOEDS=  0.000000000000000    
_COSMOEC=  0.000000000000000    
_COSMOEDCORR=  0.000000000000000    
_FEPSI=  1.000000000000000    
_SL_IsMM=  0.000000000000000    
_SL_NSYM=  1.000000000000000    
_SL_System_BitSw=  0.000000000000000    
_SL_Unique_atoms=  0.000000000000000    
_SL_GRAD=  0.000000000000000    
_SL_MAXUPD_Hess=  5.000000000000000    
_SL_N_PRINT_COD=  5.000000000000000    
_SL_PRINT_CODES=  0.000000000000000    
_SL_BasType=  0.000000000000000    
_SL_Energy_Pred=  0.000000000000000    
_SL_New_Coords=  0.000000000000000    
_SL_Total_Nuclea=  0.000000000000000    
_SL_Highest_Mltp=  0.000000000000000    
_SL_Ref_Geom=  0.000000000000000    
_SL_Symmetry_ope=  1.000000000000000    
_SL_agrad=  0.000000000000000    
_SL_GrdMax=  0.000000000000000    
_SL_GrdNorm=  0.000000000000000    
_SL_GrdRMS=  0.000000000000000    
_SL_Hss_Q=  0.000000000000000    
_SL_Hss_X=  0.000000000000000    
_SL_BMxOld=  0.000000000000000    
_SL_KtB=  0.000000000000000    
_SL_TROld=  0.000000000000000    
_SL_No_of_Intern=  0.000000000000000    
_SL_Hess=  0.000000000000000    
_SL_K=  0.000000000000000    
!LATTICE= -1.000000000000000    
!NEWLATTICE=  0.000000000000000    
!LATGRAD_VAR=FALSE
!SEW_LATTICE=  1.000000000000000    
!AIC_ONEEL=  0.000000000000000    
!LOCAL=  0.000000000000000    
!SAVEDOM= -1.000000000000000    
!RESTDOM= -1.000000000000000    
!SAVEDOM_HF= -1.000000000000000    
!RESTDOM_HF= -1.000000000000000    
!HESSREC=  5300.200000000000    
!FREQREC=  5400.200000000000    
!NMODREC=  5450.200000000000    
!GTASKS=  0.000000000000000    
!HTASKS=  0.000000000000000    
!SAVEDOM_EOM= -1.000000000000000    
!RESTDOM_EOM= -1.000000000000000    
!GRADSTATE= -1.000000000000000    
!DEBUG=  0.000000000000000    
!CFIT_CPHF=  0.000000000000000    
!RDOMAUX_CPHF=  0.000000000000000    
!THRAO_CPHF= 0.1000000000000000E-11
!THRMO_CPHF= 0.1000000000000000E-11
!THROV_CPHF= 0.1000000000000000E-11
!THRSW_CPHF= 0.1000000000000000E-11
!THRPROD_CPHF= 0.1000000000000000E-11
!THRAOPR_CPHF= 0.1000000000000000E-11
!CFIT_SCFGRD=  0.000000000000000    
!RDOMAUX_SCFGRD=  0.000000000000000    
!THRAO_SCFGRD= 0.1000000000000000E-11
!THRMO_SCFGRD= 0.1000000000000000E-11
!THROV_SCFGRD= 0.1000000000000000E-11
!THRSW_SCFGRD= 0.1000000000000000E-11
!THRPROD_SCFGRD= 0.1000000000000000E-11
!THRAOPR_SCFGRD= 0.1000000000000000E-11
!LOCFIT_SCF=  0.000000000000000    
!LOCFIT_MP2=  0.000000000000000    
_RIDOM=  0.000000000000000    
!CC2_METHOD=  0.000000000000000    
_BASIS2006=FALSE
_SVDDEL= -1.000000000000000    
_SVDDELA= -1.000000000000000    
_SVDDELP= -1.000000000000000    
_SVDDELF= -1.000000000000000    
_SVDDELS= -1.000000000000000    
_SVDDEL_ABS= -1.000000000000000    
_SVDDELA_ABS= -1.000000000000000    
_SVDDELP_ABS= -1.000000000000000    
_SVDDELF_ABS= -1.000000000000000    
_SVDDELS_ABS= -1.000000000000000    
_MAXBASIS=  0.000000000000000    
!OPT_CONICAL=  0.000000000000000    
!CLEARSP_JGRID=  0.000000000000000    
_GRDHYBR=  0.000000000000000    
_STATEGRAD=  1.000000000000000    
_4EXT_NDISKS=  1.000000000000000    
!EMBEDFLAG=  1.000000000000000    
!EMBED=FALSE
!EMBED_F12=FALSE
!EMBEDNUC=  0.000000000000000    
_EMBEDENERGY=  0.000000000000000    
!EMBED_DFC=FALSE
!NUM_VOIDS=  0.000000000000000    
_IBODY=  0.000000000000000    
_EMBE_CORR=  0.000000000000000    
!EMBED_PROJ=FALSE
!EMB_PROJ_ZMU=  1000000.000000000    
!CORRECTION_HF=  0.000000000000000    
!EMBED_AORB=  0.000000000000000    
!EMBED_NACORR=  0.000000000000000    
!EMBED_MP2=FALSE
!EMBED_TRUNC_PERTURBATION=FALSE
!EMBED_FROZEN=  0.000000000000000    
!EMBED_ACTIVE=  0.000000000000000    
_CHANGE_BASIS=FALSE
_RESTORE_BASIS=FALSE
_FIX_EMBED_GUESS=FALSE
_EMBED_SCF=FALSE
_HUZINAGA_T=FALSE
_HUZINAGA_F=FALSE
_HUZINAGA=FALSE
_HUZINAGA_CORRECT=FALSE
!FASTLATGRAD=  1.000000000000000    
!FASTVLAMBDA= -1.000000000000000    
!IFORCE= -1.000000000000000    
!USESYM= -1.000000000000000    
_SINDEX=  0.000000000000000    
_AVDOM_OSV=  0.000000000000000    
_AVDOM_PNO=  0.000000000000000    
_AVDOM_PAO=  0.000000000000000    
_AVDOM_LMO=  0.000000000000000    
!CPP_PROG=CCSD-GRAD
_CC2OSV_FLAG=  0.000000000000000    
_EOMCCSD_CONV=FALSE
_TMADC2_FLAG=FALSE
_PROPADC2_FLAG=FALSE
_LEN_VirQ=  0.000000000000000    
_GRDCC2LR_FLAG=FALSE
_GRDADC2_FLAG=FALSE
_RO_VGLOBAL=  0.000000000000000    
_OPT=FALSE
_FREQ=FALSE
_HESS=FALSE
_CMRCC_callName=EMPTY
_CMRCC_callCount=  0.000000000000000    
_GECCO_CIROOT=  1.000000000000000    
_SYM_CATION=  1.000000000000000    
_MON_A=FALSE
_MON_B=FALSE
GX1= 0.7463653022048588E-05
GY1=  1.014149224881335    
GZ1=  1.099501462692539    
GX2=-0.1655011406012549E-07
GY2=-0.1233268486261681E-01
GZ2= 0.7250376127070989    
GX3= 0.8933769226530180    
GY3=-0.5202043857965569    
GZ3=  1.115698380126070    
GX4=-0.8933839280700600    
GY4=-0.5201917662592552    
GZ4=  1.115698889038742    
GX5=-0.1122165980119536E-07
GY5= 0.6360210860546561E-01
GZ5=-0.6898965550142203    
GX6=-0.8308076241411273E-07
GY6=-0.8363212613535372    
GZ6= -1.014641490493705    
HX1= 0.1410426010090698E-04
HY1=  1.916464284527233    
HZ1=  2.077756638114338    
CX2=-0.3127518290527154E-07
CY2=-0.2330539677166376E-01
CZ2=  1.370122518068906    
HX3=  1.688237709875184    
HY3=-0.9830438179846566    
HZ3=  2.108364376126889    
HX4= -1.688250948194782    
HY4=-0.9830199705153368    
HZ4=  2.108365337832459    
OX5=-0.2120586368829780E-07
OY5= 0.1201905662130339    
OZ5= -1.303715543299692    
HX6=-0.1569998871880918E-06
HY6= -1.580418136159756    
HZ6= -1.917394531715184    
[Atoms] Angs
H     1    1         0.0000074637        1.0141492249        1.0995014627
C     2    6        -0.0000000166       -0.0123326849        0.7250376127
H     3    1         0.8933769227       -0.5202043858        1.1156983801
H     4    1        -0.8933839281       -0.5201917663        1.1156988890
O     5    8        -0.0000000112        0.0636021086       -0.6898965550
H     6    1        -0.0000000831       -0.8363212614       -1.0146414905
[GTO]
   1 0
 s    3  1.00
  0.3386500000D+02  0.2549381454D-01
  0.5094790000D+01  0.1903731086D+00
  0.1158790000D+01  0.8521614860D+00
 s    1  1.00
  0.3258400000D+00  0.1000000000D+01
 s    1  1.00
  0.1027410000D+00  0.1000000000D+01
 p    1  1.00
  0.7500000000D+00  0.1000000000D+01
  
   2 0
 s    6  1.00
  0.4563240000D+04  0.1966650249D-02
  0.6820240000D+03  0.1523060193D-01
  0.1549730000D+03  0.7612690966D-01
  0.4445530000D+02  0.2608010331D+00
  0.1302900000D+02  0.6164620782D+00
  0.1827730000D+01  0.2210060280D+00
 s    3  1.00
  0.2096420000D+02  0.1146600807D+00
  0.4803310000D+01  0.9199996477D+00
  0.1459330000D+01 -0.3030682134D-02
 s    1  1.00
  0.4834560000D+00  0.1000000000D+01
 s    1  1.00
  0.1455850000D+00  0.1000000000D+01
 p    3  1.00
  0.2096420000D+02  0.4024869267D-01
  0.4803310000D+01  0.2375939567D+00
  0.1459330000D+01  0.8158538515D+00
 p    1  1.00
  0.4834560000D+00  0.1000000000D+01
 p    1  1.00
  0.1455850000D+00  0.1000000000D+01
 d    1  1.00
  0.6260000000D+00  0.1000000000D+01
  
   3 0
 s    3  1.00
  0.3386500000D+02  0.2549381454D-01
  0.5094790000D+01  0.1903731086D+00
  0.1158790000D+01  0.8521614860D+00
 s    1  1.00
  0.3258400000D+00  0.1000000000D+01
 s    1  1.00
  0.1027410000D+00  0.1000000000D+01
 p    1  1.00
  0.7500000000D+00  0.1000000000D+01
  
   4 0
 s    3  1.00
  0.3386500000D+02  0.2549381454D-01
  0.5094790000D+01  0.1903731086D+00
  0.1158790000D+01  0.8521614860D+00
 s    1  1.00
  0.3258400000D+00  0.1000000000D+01
 s    1  1.00
  0.1027410000D+00  0.1000000000D+01
 p    1  1.00
  0.7500000000D+00  0.1000000000D+01
  
   5 0
 s    6  1.00
  0.8588500000D+04  0.1895150083D-02
  0.1297230000D+04  0.1438590063D-01
  0.2992960000D+03  0.7073200310D-01
  0.8737710000D+02  0.2400010105D+00
  0.2567890000D+02  0.5947970261D+00
  0.3740040000D+01  0.2808020123D+00
 s    3  1.00
  0.4211750000D+02  0.1138890124D+00
  0.9628370000D+01  0.9208111006D+00
  0.2853320000D+01 -0.3274470358D-02
 s    1  1.00
  0.9056610000D+00  0.1000000000D+01
 s    1  1.00
  0.2556110000D+00  0.1000000000D+01
 p    3  1.00
  0.4211750000D+02  0.3651139738D-01
  0.9628370000D+01  0.2371529830D+00
  0.2853320000D+01  0.8197019412D+00
 p    1  1.00
  0.9056610000D+00  0.1000000000D+01
 p    1  1.00
  0.2556110000D+00  0.1000000000D+01
 d    1  1.00
  0.1292000000D+01  0.1000000000D+01
  
   6 0
 s    3  1.00
  0.3386500000D+02  0.2549381454D-01
  0.5094790000D+01  0.1903731086D+00
  0.1158790000D+01  0.8521614860D+00
 s    1  1.00
  0.3258400000D+00  0.1000000000D+01
 s    1  1.00
  0.1027410000D+00  0.1000000000D+01
 p    1  1.00
  0.7500000000D+00  0.1000000000D+01


[MO]
 Sym=      1.1
 Ene=     -20.5454
 Spin= Alpha
 Occup=    2.000000
1 0.000029399671865
2 -0.000123479333143
3 -0.000047151259265
4 -0.000000000091664
5 -0.000015522576089
6 0.000000195034228
7 -0.000002705982349
8 -0.000031792178162
9 0.000086033522768
10 0.000512574937776
11 0.000000000058174
12 0.000014893146100
13 -0.000023578899149
14 -0.000000000299490
15 -0.000033542438421
16 -0.000265379312104
17 0.000000000536972
18 0.000146873067795
19 -0.000196892194197
20 -0.000057484267172
21 -0.000080840491866
22 0.000138324759037
23 0.000000000039083
24 -0.000000000048581
25 0.000017740367525
26 0.000009629846313
27 -0.000049824137448
28 -0.000001218903503
29 -0.000018404353069
30 -0.000010421484970
31 0.000024032058613
32 0.000009629752349
33 -0.000049824693300
34 -0.000001218594981
35 0.000018404090439
36 -0.000010421845694
37 0.000024031930202
38 0.55145976323317
39 0.47167494055522
40 0.005566960024898
41 -0.000802603076279
42 -0.000000000536984
43 -0.001496210018904
44 0.000965105050019
45 0.000000000259511
46 0.000569185599621
47 -0.000345555417009
48 -0.000000000154547
49 -0.000126472157277
50 -0.000157599176747
51 0.000164309131321
52 -0.000022586395002
53 -0.000141722736319
54 -0.000000000068512
55 0.000000000015007
56 -0.000045370603117
57 0.000209083350853
58 0.000108321774739
59 0.000065042308836
60 -0.000000000019713
61 0.000070284218141
62 0.000081473517094
 Sym=      2.1
 Ene=     -11.2712
 Spin= Alpha
 Occup=    2.000000
1 0.000335195916835
2 0.000079757290933
3 0.000271358665803
4 0.000000000180413
5 0.000024512355156
6 -0.000029683973943
7 0.56347609686321
8 0.46656972575107
9 0.003978645669212
10 -0.001203228054554
11 0.000000000246887
12 -0.000051989593392
13 -0.000927502872940
14 0.000000000214223
15 0.000045587219423
16 0.000720071304392
17 -0.000000000120281
18 -0.000035697097066
19 -0.000129990510754
20 0.000106289564887
21 0.000160784845432
22 -0.000267074410319
23 0.000000000394062
24 -0.000000000016226
25 0.000033250091712
26 0.000338646249553
27 0.000110935496264
28 0.000240040094430
29 0.000003231549183
30 -0.000002449931113
31 -0.000039563369296
32 0.000338646184941
33 0.000110935403365
34 0.000240040232246
35 -0.000003231626797
36 -0.000002449936063
37 -0.000039563324995
38 -0.000068316913010
39 -0.000122560164968
40 0.000278199330941
41 0.000354659853785
42 0.000000000001189
43 -0.000012934348631
44 0.000100254667121
45 -0.000000000025954
46 -0.000011453815398
47 0.000537252250595
48 -0.000000000032558
49 -0.000019717009489
50 0.000155481606635
51 -0.000102789042488
52 -0.000119817163337
53 0.000222606205825
54 -0.000000000001426
55 -0.000000000035879
56 -0.000045416786183
57 -0.000013766385021
58 0.000022704486984
59 -0.000026176390065
60 0.000000000017115
61 0.000041665580646
62 0.000018048044125
 Sym=      3.1
 Ene=      -1.3543
 Spin= Alpha
 Occup=    2.000000
1 0.014582587653478
2 0.031064739888747
3 0.001076749699179
4 -0.000000055975167
5 -0.007631416281422
6 -0.003528105556114
7 -0.036956081966023
8 -0.060446462302172
9 0.15137288662152
10 0.004045648456507
11 0.000000003940176
12 0.000296029924081
13 -0.039884040767762
14 0.000000008256666
15 -0.000405505064024
16 -0.079615692041494
17 -0.000000017305107
18 -0.004782598336255
19 0.004146458341002
20 -0.014274282456107
21 -0.013449619080645
22 0.027723901536752
23 -0.000000002560810
24 0.000000002943955
25 0.000206204096661
26 0.014408364078257
27 0.029299629305601
28 -0.001009852136898
29 -0.006504939753669
30 0.003895518900141
31 -0.004117220394477
32 0.014408349368907
33 0.029299621152298
34 -0.001009856692843
35 0.006504995156777
36 0.003895429069979
37 -0.004117223371131
38 -0.10968134620568
39 -0.18323929049552
40 0.52029286346790
41 0.39328148995884
42 -0.000000000116866
43 -0.028107885521595
44 0.020111279369277
45 -0.000000002916711
46 -0.048221684669584
47 0.037231266910441
48 0.000000003103438
49 -0.017174410070359
50 0.029232766439051
51 -0.007828851777798
52 0.003157129605585
53 0.004671722172213
54 0.000000000758307
55 -0.000000000225353
56 0.001335646301763
57 0.089060545621829
58 0.074373896356871
59 -0.000789399734944
60 0.000000000296400
61 0.023707854644493
62 0.011692501155477
 Sym=      4.1
 Ene=      -0.9214
 Spin= Alpha
 Occup=    2.000000
1 0.086659672923498
2 0.12519874317710
3 0.007648845526736
4 -0.000000147335835
5 -0.020094675495430
6 -0.004951991186560
7 -0.094691862476230
8 -0.15745240168317
9 0.41083430360082
10 0.24872525452973
11 0.000000032182244
12 0.005409791974421
13 0.030741482966486
14 0.000000048882161
15 0.008673569377722
16 0.027680405730050
17 -0.000000031921718
18 -0.007232881739243
19 0.024805292851438
20 -0.000291203042648
21 0.001986007409803
22 -0.001694804367154
23 0.000000007971782
24 -0.000000000149906
25 -0.001805099414053
26 0.082891418036859
27 0.11588660441705
28 0.003939635598682
29 -0.016429326360658
30 0.009836850688565
31 -0.005542142492467
32 0.082891417532369
33 0.11588659452708
34 0.003939604006000
35 0.016429467128067
36 0.009836622895839
37 -0.005542141727923
38 0.031454684035361
39 0.052878664795463
40 -0.15323960090269
41 -0.14740611682095
42 0.000000011758954
43 0.032224116192318
44 0.079937516727245
45 0.000000016971010
46 0.052265742510286
47 0.12764797931639
48 0.000000019183852
49 0.019925133995002
50 0.071088805100461
51 -0.001268845302284
52 -0.010393378720810
53 0.011662224023094
54 -0.000000001403477
55 0.000000000514108
56 -0.005992922199324
57 -0.069909854033338
58 -0.083407415645532
59 -0.013402157103092
60 0.000000001699190
61 -0.016408187960238
62 -0.001199704307215
 Sym=      5.1
 Ene=      -0.6873
 Spin= Alpha
 Occup=    2.000000
1 0.030513063663470
2 0.035811814313158
3 0.011886204106001
4 -0.000000043370593
5 -0.001327788712473
6 -0.002790624463267
7 0.011114791305962
8 0.017958748504272
9 -0.042487224547998
10 -0.058937371018730
11 -0.000000010292825
12 0.089653755278712
13 -0.078157869418532
14 -0.000000010057626
15 0.15011821391274
16 -0.13443320066164
17 0.000000094436931
18 0.090695946429540
19 -0.052286897463109
20 -0.023261400747030
21 -0.002589157800569
22 0.025850558547600
23 0.000000270063497
24 0.000000007745306
25 -0.010545052449332
26 -0.065513639073416
27 -0.088695304233790
28 -0.023773778514633
29 0.008113071476477
30 -0.000257024472411
31 -0.000496256826261
32 -0.065512851363079
33 -0.088694144239528
34 -0.023773351746540
35 -0.008113022996201
36 -0.000256857212668
37 -0.000496299794750
38 -0.021999002000367
39 -0.037460260859444
40 0.11491293590420
41 0.16864274575162
42 -0.000000004008318
43 0.17188819476972
44 0.087652401362298
45 -0.000000003371070
46 0.26385441235155
47 0.13908499307912
48 -0.000000028396312
49 0.17863538271205
50 0.081470021909355
51 0.005084536059723
52 -0.019669901916469
53 0.014585365856746
54 -0.000000001987542
55 -0.000000003048230
56 0.000105457841466
57 -0.13508009261630
58 -0.20669438905329
59 -0.039071800544803
60 -0.000000004167662
61 -0.025347242884131
62 -0.012748832021603
 Sym=      6.1
 Ene=      -0.6164
 Spin= Alpha
 Occup=    2.000000
1 0.000000833082816
2 0.000001176219590
3 0.000000357190023
4 0.008802491087247
5 -0.000000138791163
6 -0.000000027521310
7 0.000000019087883
8 0.000000032603032
9 -0.000000087108744
10 -0.000000157887487
11 0.16167994114787
12 -0.000000034138795
13 -0.000000085945579
14 0.26249167210027
15 -0.000000050890070
16 -0.000000157421365
17 0.15103280249380
18 0.000000124975670
19 -0.000000093870163
20 -0.000000411044150
21 0.000000400937952
22 0.000000010106199
23 -0.022898119133302
24 -0.000806698052105
25 0.000000011812864
26 0.10835688021368
27 0.16259247481362
28 0.065037597549436
29 -0.007306073520224
30 0.008269206196166
31 -0.004944588566964
32 -0.10835777269348
33 -0.16259363662464
34 -0.065037961594586
35 -0.007306303170134
36 -0.008269056345363
37 0.004944599051410
38 0.000000006804214
39 0.000000011588730
40 -0.000000031889434
41 -0.000000079453004
42 0.15564894388633
43 -0.000000016844417
44 0.000000070942828
45 0.24234411138609
46 -0.000000016934474
47 0.000000105324225
48 0.21101924294157
49 -0.000000035659896
50 0.000000087331070
51 -0.000000006055365
52 0.000000000233656
53 0.000000005821709
54 -0.007954884678738
55 0.011944006019895
56 -0.000000006861202
57 -0.000000023241871
58 0.000000009033750
59 -0.000000011702986
60 0.016546215858737
61 -0.000000005025591
62 0.000000022476934
 Sym=      7.1
 Ene=      -0.5888
 Spin= Alpha
 Occup=    2.000000
1 -0.12274818384045
2 -0.16927940793726
3 -0.062181631323970
4 0.000000111057455
5 0.010390655053934
6 -0.001190592432672
7 -0.000535285333900
8 -0.001758864645476
9 0.007768173160688
10 -0.018567852438726
11 -0.000000088051172
12 -0.10342902482634
13 -0.12522070348138
14 -0.000000137672241
15 -0.16879976641781
16 -0.22205613990500
17 -0.000000216971657
18 -0.12821091213854
19 -0.10406035715321
20 -0.007210556887400
21 -0.033306391905191
22 0.040516948792590
23 -0.000000338643262
24 0.000000001227927
25 -0.004504407692153
26 0.002474133081744
27 0.003151654448575
28 0.000339622184737
29 -0.001915020276630
30 -0.003334522671014
31 -0.005385040224474
32 0.002473177826248
33 0.003150219398485
34 0.000338941295548
35 0.001914911383071
36 -0.003334607645796
37 -0.005384989137833
38 0.014835045025221
39 0.025121767221218
40 -0.075689495517758
41 -0.11213197202418
42 -0.000000100710630
43 -0.058725274732500
44 0.18015836995172
45 -0.000000161045984
46 -0.089754042715197
47 0.27914575424012
48 -0.000000118020294
49 -0.083177413804031
50 0.22744693723309
51 -0.006667732724905
52 -0.005310135328059
53 0.011977868052964
54 0.000000001074191
55 -0.000000009580025
56 -0.017157129105524
57 -0.028882468197792
58 -0.033731461829795
59 -0.042359993051917
60 -0.000000005952612
61 -0.010141440032735
62 0.018154457426571
 Sym=      8.1
 Ene=      -0.5001
 Spin= Alpha
 Occup=    2.000000
1 -0.11645091867553
2 -0.22191270695918
3 -0.081716197068054
4 0.000000174223621
5 0.014093443573266
6 0.009196904010536
7 0.004470732793044
8 0.007780072469177
9 -0.024588357712374
10 0.017483588256942
11 0.000000008338975
12 -0.13972747294690
13 0.040493042196169
14 0.000000005651787
15 -0.21677601196545
16 0.076048206421902
17 0.000000012297184
18 -0.11838354385619
19 0.012621209515597
20 0.023662044821697
21 -0.010372505399120
22 -0.013289539422578
23 -0.000000421327716
24 -0.000000002431658
25 -0.030704103766102
26 0.072887604899468
27 0.12290685770312
28 0.064350680954968
29 -0.009968173259445
30 -0.004861300596250
31 -0.001130404554598
32 0.072886014027818
33 0.12290392094049
34 0.064349407520721
35 0.009967984176007
36 -0.004861571155565
37 -0.001130312180513
38 -0.024877764235289
39 -0.042292117158697
40 0.12789259190181
41 0.21778662497672
42 -0.000000060280364
43 0.16497417960544
44 -0.080845496771823
45 -0.000000094490605
46 0.24484328519302
47 -0.12031531579322
48 -0.000000092474788
49 0.22779175693820
50 -0.14011569182133
51 0.010056516267781
52 -0.009725269233878
53 -0.000331247033903
54 -0.000000012995879
55 -0.000000001887896
56 0.000891919697633
57 -0.083948258274646
58 -0.15821643365998
59 -0.033395698375972
60 0.000000009413948
61 -0.011983766276715
62 -0.019013384367696
 Sym=      9.1
 Ene=      -0.4465
 Spin= Alpha
 Occup=    2.000000
1 -0.000000809822819
2 -0.000001618731451
3 -0.000000743676044
4 -0.008253765345991
5 0.000000157376189
6 0.000000045600141
7 -0.000000003747509
8 -0.000000006933843
9 0.000000025999777
10 0.000000006666204
11 -0.10491006499801
12 -0.000000066811102
13 0.000000012984710
14 -0.16162349741798
15 -0.000000104528731
16 0.000000040810225
17 -0.081893238098715
18 -0.000000029966455
19 0.000000011085127
20 0.000000280983546
21 -0.000000290862370
22 0.000000009878824
23 0.016369548150373
24 -0.037490942156463
25 -0.000000013279294
26 -0.093653231593938
27 -0.19031606007635
28 -0.083694723039452
29 0.006954624980767
30 -0.007960546290725
31 0.005575043172849
32 0.093654012341730
33 0.19031761162258
34 0.083695479360275
35 0.006954875072524
36 0.007960381767938
37 -0.005575088136824
38 -0.000000012566549
39 -0.000000021201841
40 0.000000053563691
41 0.000000219028708
42 0.24798282713842
43 0.000000003562053
44 0.000000014250200
45 0.37231445697381
46 -0.000000005976691
47 0.000000022673715
48 0.41362645502397
49 -0.000000081511834
50 0.000000003817198
51 0.000000006930314
52 -0.000000007530220
53 0.000000000599907
54 -0.010786952696571
55 0.003815583373504
56 -0.000000004742798
57 -0.000000037700071
58 -0.000000219865177
59 -0.000000030116288
60 0.026019057953946
61 -0.000000019809534
62 -0.000000029967674
 Sym=     10.1
 Ene=       0.1537
 Spin= Alpha
 Occup=    0.000000
1 0.002677949578008
2 0.046294294940683
3 0.44926336156367
4 -0.000000038134904
5 -0.005182995400717
6 -0.008759787221068
7 0.030629653893571
8 0.048747022244208
9 -0.019421645073007
10 -1.70312746362308
11 -0.000000188792120
12 0.020699489940305
13 -0.060081621638042
14 -0.000000122065060
15 0.015435382432338
16 -0.063471338192047
17 -0.000001545094379
18 0.15376952447984
19 -0.24176843928643
20 0.005043045918328
21 0.003100799552279
22 -0.008143845470607
23 -0.000000068388018
24 0.000000008596529
25 -0.006460757098103
26 0.003799096823290
27 0.010532965080871
28 0.79633715683849
29 0.000539963152255
30 -0.001919138167199
31 -0.006496731703323
32 0.003799051660116
33 0.010533362580968
34 0.79633072759600
35 -0.000539882951331
36 -0.001919072703324
37 -0.006496766460319
38 0.019184694932954
39 0.031972420593040
40 -0.080665197185706
41 -0.34518328165250
42 0.000000040395224
43 0.049132383694859
44 0.031622067755828
45 0.000000031637169
46 0.068014251992119
47 0.024389999898980
48 0.000000238016824
49 0.12909115311511
50 0.20857740516016
51 0.000516440466308
52 -0.002033021211781
53 0.001516580745473
54 -0.000000008545991
55 -0.000000007862609
56 0.001555873278844
57 0.030058814495538
58 -0.10062525485170
59 0.91270496546944
60 0.000000005916044
61 -0.010732914948077
62 -0.008168966759579
 Sym=     11.1
 Ene=       0.1883
 Spin= Alpha
 Occup=    0.000000
1 -0.013380983221830
2 0.076286087014957
3 -1.06422710574643
4 -0.000000054970982
5 -0.007285861380776
6 -0.008963990557218
7 -0.035719611514644
8 -0.058046832918836
9 0.088079320539299
10 1.23141543199153
11 -0.000000265532742
12 0.025572959321776
13 0.006768864768896
14 -0.000000163437911
15 0.013275866922945
16 -0.019039130181327
17 -0.000001902210425
18 0.26930765079347
19 0.16512060479092
20 0.000938519311124
21 0.004304302772971
22 -0.005242822084095
23 -0.000000050325336
24 0.000000025027426
25 -0.005842680877298
26 -0.013130516215506
27 0.076041955644397
28 -0.58005748391887
29 -0.003614911920682
30 -0.002064339183829
31 -0.008111858478601
32 -0.013130618068199
33 0.076042254007828
34 -0.58006683155238