[Molden Format]
[Molpro variables]
_NUMVAR=  1113.000000000000    
_AVOGAD= 0.6022140760000000E+24
_BOLTZ= 0.1380649000000000E-22
_CLIGHTSI=  299792458.0000000    
_JOULE= 0.4359744722207100E-17
_JPCAL=  4.184000000000000    
_PLANCK= 0.6626070150000000E-33
_BOHR= 0.5291772109030000E-10
_ECHARG= 0.1602176634000000E-18
_ENULL= 0.8854187812800001E-11
_MU= 0.1660539066600000E-26
_EMASS= 0.9109383701500001E-30
_AMU2AU=  1822.888486217313    
_CLIGHT=  29979245800.00000    
_EV= 0.3674932217565494E-01
_KJOULE= 0.3808798847133432E-03
_KJOULE/MOL= 0.3808798847133432E-03
_CM= 0.4556335252912009E-05
_CM-1= 0.4556335252912009E-05
_DEB2SI= 0.3335640951981520E-29
_KCAL= 0.1593601437640628E-02
_KCAL/MOL= 0.1593601437640628E-02
_KELVIN= 0.3166811563455608E-05
_HERTZ= 0.1519829846057038E-15
_HZ= 0.1519829846057038E-15
_TOA= 0.5291772109030000    
_TOANG= 0.5291772109030000    
_TORAD= 0.1745329251994330E-01
_TOCM=  219474.6313631965    
_TODEBYE=  2.541746473194078    
_TOE= 0.4803204712570263E-09
_TOEV=  27.21138624598803    
_TOHERTZ=  6579683920501656.    
_TOHZ=  6579683920501656.    
_TOK=  315775.0248040668    
_TOKCAL=  627.5094740630558    
_TOKELVIN=  315775.0248040668    
_TOKJ=  2625.499639479825    
_TOKJOULE=  2625.499639479825    
_TOKG= 0.1660539066600000E-26
_ANG=  1.889726124625770    
_ANGSTROM=  1.889726124625770    
_RPAREF=  0.000000000000000    
_RPADISS=  0.000000000000000    
_IGNORE_UNDEF=  2.000000000000000    
_STRICTCHECK=  0.000000000000000    
!SEWARD=  0.000000000000000    
!MULTI=  0.000000000000000    
!DFMULTI=  0.000000000000000    
_SEW_ONEEL=  0.000000000000000    
_CPPDONE=FALSE
_DKROLL_DONE=  0.000000000000000    
_FNUC_DONE=  0.000000000000000    
_FOCKDONE=TRUE
_GRADONE=FALSE
_HESSDONE=TRUE
_INTDONE=TRUE
_SCFDONE=TRUE
_MODUL_BLOCK=FALSE
_MODUL_SLATER=FALSE
_MODUL_MRCC=FALSE
_MODUL_NBO6=FALSE
_MODUL_NECI=FALSE
_MODUL_AIMS=TRUE
_MODUL_HDF5=FALSE
_MODUL_GECCO=FALSE
_ISWINDOWS=FALSE
_MRCC_EXEC=
_FITC_AO_SAVED=FALSE
_FITC_MO_SAVED=FALSE
_SHARED_FS=TRUE
_LSTYP=SEWARD
_INTYP=INTS
_GEOMTYP=ZMAT
_GRADTYP=ALASKA
_DIRECT=FALSE
_DKHO= -1.000000000000000    
_FNUC=  0.000000000000000    
_SYNCM=  0.000000000000000    
_BASIS=6-311G(D,P)
_ZCENTRE=MASS
_ZORIENT=  1.000000000000000    
_NELEC=  42.00000000000000    
!SPIN=  0.000000000000000    
_OPTCONV= 0.1274638308484179E-02
_QSDSTEP=  0.000000000000000    
_QSDIRC=  0.000000000000000    
_PROGRAM=FREQ
_CPUSTEP=  4829.920000000000    
_SYSSTEP=  27.37000000000000    
_WALLSTEP=  2627.480000000000    
!DFSCF=  0.000000000000000    
!SCSGRD=  0.000000000000000    
_NCEN=  15.00000000000000    
_CPUTOT=  13134.13000000000    
_DFTEXFAC=  1.000000000000000    
_DMX=-0.1116444583906596E-04
_DMY= 0.6564935748535273    
_DMZ=-0.3843164065480664E-01
_DMX_SCF=-0.1116444583906596E-04
_DMY_SCF= 0.6564935748535273    
_DMZ_SCF=-0.3843164065480664E-01
_FREQUENCIES= 0.5015557602778093E-04
_HOMO=  21.10000000000000    
_EHOMO=-0.4368490354672372    
_LUMO=  22.10000000000000    
_ELUMO= 0.1571228766656222    
_ENERGY= -232.2136604108856    
_ENERGY_METHOD=HF
_ENERGY_BASIS=6-311G(D,P)
_GEOMETRY_METHOD=HF
_GEOMETRY_BASIS=6-311G(D,P)
_ENUC=  185.8343637482506    
_GRADENERG= -232.2136604076750    
_GRADEXFAC=  9999.000000000000    
_GRADMETHOD=  1.000000000000000    
_NMRMETHOD=  0.000000000000000    
_NMRMAGNET=  0.000000000000000    
_VIRIAL= 0.1803571518298979E-03
!GRID_FREEZE= -1.000000000000000    
!NEESE_INDEX=  0.000000000000000    
_ITERATIONS=  10.00000000000000    
_LASTNELEC=  42.00000000000000    
_LASTSPIN=  0.000000000000000    
_LASTSYM=  1.000000000000000    
_MPP_PROG=  1.000000000000000    
_MSNSTATES=  0.000000000000000    
_RS2PHASE=  0.000000000000000    
_IPROC_MPP=  0.000000000000000    
_IPROC_MPPX=  0.000000000000000    
_NPROC_MPP=  4.000000000000000    
_NPROC_MPPX=  4.000000000000000    
_NPROC_SMP=  8.000000000000000    
_NUMSTEP=  0.000000000000000    
_OPTCONVMX= 0.7263311735520014E-03
_OPTCONVRMS= 0.3291101960798092E-03
_OPTGRAD= 0.6386229200158943E-04
_OPTGRADMX= 0.2652660825797071E-04
_OPTGRADRMS= 0.9520028407633005E-05
_OPTSTEP=  11.00000000000000    
_ORBITAL=  2100.200000000000    
_PI=  3.141592653589793    
_SEIG_MIN= 0.1617286661300230E-02
_SEWPROP=TRUE
_STATUS=  1.000000000000000    
_SYSTOT=  68.09000000000000    
_VERSION=  2022003.000000000    
_WALLTOT=  6766.960000000000    
_ZPE= 0.1456797165639638    
_DATE=06-Aug-25
_LASTORB=0
_OUTPUT=/home/zwa/Overlap_Integral_Project/overlap_integral_gaussian/molpro_files/butanol/butanoltrans.out
_PGROUP=C1
_TIME=09:23:26
_LIBMOL=/usr/local/molpro/molpro_2022.3.0_sockets/lib/
_VIGRDC=  0.000000000000000    
!VIBCNT=  0.000000000000000    
!RGHFCNT=  0.000000000000000    
!SURFREC=  0.000000000000000    
!XSURFREC=  0.000000000000000    
!XPOLYREC=  0.000000000000000    
!ROTREC=  0.000000000000000    
!POLYREC=  0.000000000000000    
!DIPREC=  0.000000000000000    
!DIP4DREC=  0.000000000000000    
!DIPROT=  0.000000000000000    
!DIP4DROT=  0.000000000000000    
!PTREC=  0.000000000000000    
!PT4DREC=  0.000000000000000    
!VSCFREC=  0.000000000000000    
!VCIREC=  0.000000000000000    
!PVCIREC=  0.000000000000000    
!VMP2REC=  0.000000000000000    
!VMCSCFREC=  0.000000000000000    
!VMRCIREC=  0.000000000000000    
!VIBSTATEREC=  0.000000000000000    
!VIBSTATECNT=  0.000000000000000    
!VIBINFO=  0.000000000000000    
!GAREC=  0.000000000000000    
!SCFORB=  21002.00000000000    
!DEFCORE=  5.000000000000000    
!SCORE=  0.000000000000000    
!NEWMOL=  0.000000000000000    
!NEWSYM=  0.000000000000000    
_SLFILES=slscratch
_NGSSTO=  9.000000000000000    
_SIN=SIN
_COS=COS
_TAN=TAN
_ACOS=ACOS
_ASIN=ASIN
_ATAN=ATAN
_COSH=COSH
_SINH=SINH
_TANH=TANH
_ABS=ABS
_MOD=MOD
_ERF=ERF
_REFC=REFC
_ERFC=ERFC
_HYPOT=HYPOT
_J0=J0
_J1=J1
_JN=JN
_GAMMA=GAMMA
_LGAMMA=LGAMMA
_Y0=Y0
_Y1=Y1
_YN=YN
_EXP=EXP
_LOG=LOG
_LOG10=LOG10
_SQRT=SQRT
_INT=INT
_NINT=NINT
_MAX=MAX
_MIN=MIN
_COSMO=  0.000000000000000    
_COSMOIT=  0.000000000000000    
_COSMOES=  0.000000000000000    
_COSMOEDS=  0.000000000000000    
_COSMOEC=  0.000000000000000    
_COSMOEDCORR=  0.000000000000000    
_FEPSI=  1.000000000000000    
_SL_IsMM=  0.000000000000000    
_SL_NSYM=  1.000000000000000    
_SL_System_BitSw=  0.000000000000000    
_SL_Unique_atoms=  0.000000000000000    
_SL_GRAD=  0.000000000000000    
_SL_MAXUPD_Hess=  5.000000000000000    
_SL_N_PRINT_COD=  5.000000000000000    
_SL_PRINT_CODES=  0.000000000000000    
_SL_BasType=  0.000000000000000    
_SL_Energy_Pred=  0.000000000000000    
_SL_New_Coords=  0.000000000000000    
_SL_Total_Nuclea=  0.000000000000000    
_SL_Highest_Mltp=  0.000000000000000    
_SL_Ref_Geom=  0.000000000000000    
_SL_Symmetry_ope=  1.000000000000000    
_SL_agrad=  0.000000000000000    
_SL_GrdMax=  0.000000000000000    
_SL_GrdNorm=  0.000000000000000    
_SL_GrdRMS=  0.000000000000000    
_SL_Hss_Q=  0.000000000000000    
_SL_Hss_X=  0.000000000000000    
_SL_BMxOld=  0.000000000000000    
_SL_KtB=  0.000000000000000    
_SL_TROld=  0.000000000000000    
_SL_No_of_Intern=  0.000000000000000    
_SL_Hess=  0.000000000000000    
_SL_K=  0.000000000000000    
!LATTICE= -1.000000000000000    
!NEWLATTICE=  0.000000000000000    
!LATGRAD_VAR=FALSE
!SEW_LATTICE=  1.000000000000000    
!AIC_ONEEL=  0.000000000000000    
!LOCAL=  0.000000000000000    
!SAVEDOM= -1.000000000000000    
!RESTDOM= -1.000000000000000    
!SAVEDOM_HF= -1.000000000000000    
!RESTDOM_HF= -1.000000000000000    
!HESSREC=  5300.200000000000    
!FREQREC=  5400.200000000000    
!NMODREC=  5450.200000000000    
!GTASKS=  0.000000000000000    
!HTASKS=  0.000000000000000    
!SAVEDOM_EOM= -1.000000000000000    
!RESTDOM_EOM= -1.000000000000000    
!GRADSTATE= -1.000000000000000    
!DEBUG=  0.000000000000000    
!CFIT_CPHF=  0.000000000000000    
!RDOMAUX_CPHF=  0.000000000000000    
!THRAO_CPHF= 0.1000000000000000E-11
!THRMO_CPHF= 0.1000000000000000E-11
!THROV_CPHF= 0.1000000000000000E-11
!THRSW_CPHF= 0.1000000000000000E-11
!THRPROD_CPHF= 0.1000000000000000E-11
!THRAOPR_CPHF= 0.1000000000000000E-11
!CFIT_SCFGRD=  0.000000000000000    
!RDOMAUX_SCFGRD=  0.000000000000000    
!THRAO_SCFGRD= 0.1000000000000000E-11
!THRMO_SCFGRD= 0.1000000000000000E-11
!THROV_SCFGRD= 0.1000000000000000E-11
!THRSW_SCFGRD= 0.1000000000000000E-11
!THRPROD_SCFGRD= 0.1000000000000000E-11
!THRAOPR_SCFGRD= 0.1000000000000000E-11
!LOCFIT_SCF=  0.000000000000000    
!LOCFIT_MP2=  0.000000000000000    
_RIDOM=  0.000000000000000    
!CC2_METHOD=  0.000000000000000    
_BASIS2006=FALSE
_SVDDEL= -1.000000000000000    
_SVDDELA= -1.000000000000000    
_SVDDELP= -1.000000000000000    
_SVDDELF= -1.000000000000000    
_SVDDELS= -1.000000000000000    
_SVDDEL_ABS= -1.000000000000000    
_SVDDELA_ABS= -1.000000000000000    
_SVDDELP_ABS= -1.000000000000000    
_SVDDELF_ABS= -1.000000000000000    
_SVDDELS_ABS= -1.000000000000000    
_MAXBASIS=  0.000000000000000    
!OPT_CONICAL=  0.000000000000000    
!CLEARSP_JGRID=  0.000000000000000    
_GRDHYBR=  0.000000000000000    
_STATEGRAD=  1.000000000000000    
_4EXT_NDISKS=  1.000000000000000    
!EMBEDFLAG=  1.000000000000000    
!EMBED=FALSE
!EMBED_F12=FALSE
!EMBEDNUC=  0.000000000000000    
_EMBEDENERGY=  0.000000000000000    
!EMBED_DFC=FALSE
!NUM_VOIDS=  0.000000000000000    
_IBODY=  0.000000000000000    
_EMBE_CORR=  0.000000000000000    
!EMBED_PROJ=FALSE
!EMB_PROJ_ZMU=  1000000.000000000    
!CORRECTION_HF=  0.000000000000000    
!EMBED_AORB=  0.000000000000000    
!EMBED_NACORR=  0.000000000000000    
!EMBED_MP2=FALSE
!EMBED_TRUNC_PERTURBATION=FALSE
!EMBED_FROZEN=  0.000000000000000    
!EMBED_ACTIVE=  0.000000000000000    
_CHANGE_BASIS=FALSE
_RESTORE_BASIS=FALSE
_FIX_EMBED_GUESS=FALSE
_EMBED_SCF=FALSE
_HUZINAGA_T=FALSE
_HUZINAGA_F=FALSE
_HUZINAGA=FALSE
_HUZINAGA_CORRECT=FALSE
!FASTLATGRAD=  1.000000000000000    
!FASTVLAMBDA= -1.000000000000000    
!IFORCE= -1.000000000000000    
!USESYM= -1.000000000000000    
_SINDEX=  0.000000000000000    
_AVDOM_OSV=  0.000000000000000    
_AVDOM_PNO=  0.000000000000000    
_AVDOM_PAO=  0.000000000000000    
_AVDOM_LMO=  0.000000000000000    
_CC2OSV_FLAG=  0.000000000000000    
_EOMCCSD_CONV=FALSE
_TMADC2_FLAG=FALSE
_PROPADC2_FLAG=FALSE
_LEN_VirQ=  0.000000000000000    
_GRDCC2LR_FLAG=FALSE
_GRDADC2_FLAG=FALSE
_RO_VGLOBAL=  0.000000000000000    
_OPT=FALSE
_FREQ=FALSE
_HESS=FALSE
_CMRCC_callName=EMPTY
_CMRCC_callCount=  0.000000000000000    
_GECCO_CIROOT=  1.000000000000000    
_SYM_CATION=  1.000000000000000    
_MON_A=FALSE
_MON_B=FALSE
GX1=-0.2208106306947084E-04
GY1=-0.3194887293776628    
GZ1=  2.571473417719135    
GX2=-0.8775709574259707    
GY2=-0.9589668753481846    
GZ2=  2.617876065327569    
GX3=-0.9338958719209566E-04
GY3= 0.3092596833589692    
GZ3=  3.456972354670467    
GX4= 0.8775903133355061    
GY4=-0.9588735003946198    
GZ4=  2.617951120998892    
GX5=-0.1230824979144218E-04
GY5= 0.5219365149266865    
GZ5=  1.296479610063183    
GX6=-0.8715028323797347    
GY6=  1.174671405724833    
GZ6=  1.297820701889508    
GX7= 0.8714267580047120    
GY7=  1.174739225415793    
GZ7=  1.297876488767044    
GX8= 0.5941030208201681E-04
GY8=-0.3257891755630796    
GZ8= 0.2510647711287584E-01
GX9=-0.8725308017284507    
GY9=-0.9744887414127152    
GZ9= 0.9265664649397164E-02
GX10= 0.8727358816646303    
GY10=-0.9743714688731611    
GZ10= 0.9279128258802583E-02
GX11= 0.1671249103323262E-04
GY11= 0.5065896317005146    
GZ11= -1.242853905281151    
GX12= 0.8799035132950671    
GY12=  1.149747801119016    
GZ12= -1.263977040179752    
GX13=-0.8798623370266347    
GY13=  1.149758091417843    
GZ13= -1.263906462819954    
GX14=-0.3241233946344957E-04
GY14=-0.3647031952782789    
GZ14= -2.343584269155155    
GX15=-0.7865435136683676E-04
GY15= 0.1333559568465091    
GZ15= -3.140329586879381    
CX1=-0.4172716174188691E-04
CY1=-0.6037461984284621    
CZ1=  4.859380496244564    
HX2= -1.658368764460706    
HY2= -1.812184756996209    
HZ2=  4.947068791682026    
HX3=-0.1764807426849180E-03
HY3= 0.5844161029369377    
HZ3=  6.532730970729846    
HX4=  1.658405341828621    
HY4= -1.812008303907072    
HZ4=  4.947210626344928    
CX5=-0.2325922117930653E-04
CY5= 0.9863170676530877    
CZ5=  2.449991389181029    
HX6= -1.646901670033338    
HY6=  2.219807243249094    
HZ6=  2.452525685440757    
HX7=  1.646757910299443    
HY7=  2.219935403890866    
HZ7=  2.452631107360648    
CX8= 0.1122691999162974E-03
CY8=-0.6156523161818430    
CZ8= 0.4744436569752058E-01
HX9= -1.648844250566921    
HY9= -1.841516832801295    
HZ9= 0.1750956854998743E-01
HX10=  1.649231795479957    
HY10= -1.841295219819598    
HZ10= 0.1753501108441260E-01
CX11= 0.3158203091307508E-04
CY11= 0.9573156614890097    
CZ11= -2.348653493902954    
HX12=  1.662776656223687    
HY12=  2.172708456505639    
HZ12= -2.388570433754833    
HX13= -1.662698844353516    
HY13=  2.172727902352163    
HZ13= -2.388437061874217    
OX14=-0.6125044464431801E-04
OY14=-0.6891891558518576    
OZ14= -4.428732418684489    
HX15=-0.1486351825934046E-03
HY15= 0.2520062355273150    
HZ15= -5.934362860261219    
[Atoms] Angs
C     1    6        -0.0000220811       -0.3194887294        2.5714734177
H     2    1        -0.8775709574       -0.9589668753        2.6178760653
H     3    1        -0.0000933896        0.3092596834        3.4569723547
H     4    1         0.8775903133       -0.9588735004        2.6179511210
C     5    6        -0.0000123082        0.5219365149        1.2964796101
H     6    1        -0.8715028324        1.1746714057        1.2978207019
H     7    1         0.8714267580        1.1747392254        1.2978764888
C     8    6         0.0000594103       -0.3257891756        0.0251064771
H     9    1        -0.8725308017       -0.9744887414        0.0092656646
H    10    1         0.8727358817       -0.9743714689        0.0092791283
C    11    6         0.0000167125        0.5065896317       -1.2428539053
H    12    1         0.8799035133        1.1497478011       -1.2639770402
H    13    1        -0.8798623370        1.1497580914       -1.2639064628
O    14    8        -0.0000324123       -0.3647031953       -2.3435842692
H    15    1        -0.0000786544        0.1333559568       -3.1403295869
[GTO]
   1 0
 s    6  1.00
  0.4563240000D+04  0.1966650249D-02
  0.6820240000D+03  0.1523060193D-01
  0.1549730000D+03  0.7612690966D-01
  0.4445530000D+02  0.2608010331D+00
  0.1302900000D+02  0.6164620782D+00
  0.1827730000D+01  0.2210060280D+00
 s    3  1.00
  0.2096420000D+02  0.1146600807D+00
  0.4803310000D+01  0.9199996477D+00
  0.1459330000D+01 -0.3030682134D-02
 s    1  1.00
  0.4834560000D+00  0.1000000000D+01
 s    1  1.00
  0.1455850000D+00  0.1000000000D+01
 p    3  1.00
  0.2096420000D+02  0.4024869267D-01
  0.4803310000D+01  0.2375939567D+00
  0.1459330000D+01  0.8158538515D+00
 p    1  1.00
  0.4834560000D+00  0.1000000000D+01
 p    1  1.00
  0.1455850000D+00  0.1000000000D+01
 d    1  1.00
  0.6260000000D+00  0.1000000000D+01
  
   2 0
 s    3  1.00
  0.3386500000D+02  0.2549381454D-01
  0.5094790000D+01  0.1903731086D+00
  0.1158790000D+01  0.8521614860D+00
 s    1  1.00
  0.3258400000D+00  0.1000000000D+01
 s    1  1.00
  0.1027410000D+00  0.1000000000D+01
 p    1  1.00
  0.7500000000D+00  0.1000000000D+01
  
   3 0
 s    3  1.00
  0.3386500000D+02  0.2549381454D-01
  0.5094790000D+01  0.1903731086D+00
  0.1158790000D+01  0.8521614860D+00
 s    1  1.00
  0.3258400000D+00  0.1000000000D+01
 s    1  1.00
  0.1027410000D+00  0.1000000000D+01
 p    1  1.00
  0.7500000000D+00  0.1000000000D+01
  
   4 0
 s    3  1.00
  0.3386500000D+02  0.2549381454D-01
  0.5094790000D+01  0.1903731086D+00
  0.1158790000D+01  0.8521614860D+00
 s    1  1.00
  0.3258400000D+00  0.1000000000D+01
 s    1  1.00
  0.1027410000D+00  0.1000000000D+01
 p    1  1.00
  0.7500000000D+00  0.1000000000D+01
  
   5 0
 s    6  1.00
  0.4563240000D+04  0.1966650249D-02
  0.6820240000D+03  0.1523060193D-01
  0.1549730000D+03  0.7612690966D-01
  0.4445530000D+02  0.2608010331D+00
  0.1302900000D+02  0.6164620782D+00
  0.1827730000D+01  0.2210060280D+00
 s    3  1.00
  0.2096420000D+02  0.1146600807D+00
  0.4803310000D+01  0.9199996477D+00
  0.1459330000D+01 -0.3030682134D-02
 s    1  1.00
  0.4834560000D+00  0.1000000000D+01
 s    1  1.00
  0.1455850000D+00  0.1000000000D+01
 p    3  1.00
  0.2096420000D+02  0.4024869267D-01
  0.4803310000D+01  0.2375939567D+00
  0.1459330000D+01  0.8158538515D+00
 p    1  1.00
  0.4834560000D+00  0.1000000000D+01
 p    1  1.00
  0.1455850000D+00  0.1000000000D+01
 d    1  1.00
  0.6260000000D+00  0.1000000000D+01
  
   6 0
 s    3  1.00
  0.3386500000D+02  0.2549381454D-01
  0.5094790000D+01  0.1903731086D+00
  0.1158790000D+01  0.8521614860D+00
 s    1  1.00
  0.3258400000D+00  0.1000000000D+01
 s    1  1.00
  0.1027410000D+00  0.1000000000D+01
 p    1  1.00
  0.7500000000D+00  0.1000000000D+01
  
   7 0
 s    3  1.00
  0.3386500000D+02  0.2549381454D-01
  0.5094790000D+01  0.1903731086D+00
  0.1158790000D+01  0.8521614860D+00
 s    1  1.00
  0.3258400000D+00  0.1000000000D+01
 s    1  1.00
  0.1027410000D+00  0.1000000000D+01
 p    1  1.00
  0.7500000000D+00  0.1000000000D+01
  
   8 0
 s    6  1.00
  0.4563240000D+04  0.1966650249D-02
  0.6820240000D+03  0.1523060193D-01
  0.1549730000D+03  0.7612690966D-01
  0.4445530000D+02  0.2608010331D+00
  0.1302900000D+02  0.6164620782D+00
  0.1827730000D+01  0.2210060280D+00
 s    3  1.00
  0.2096420000D+02  0.1146600807D+00
  0.4803310000D+01  0.9199996477D+00
  0.1459330000D+01 -0.3030682134D-02
 s    1  1.00
  0.4834560000D+00  0.1000000000D+01
 s    1  1.00
  0.1455850000D+00  0.1000000000D+01
 p    3  1.00
  0.2096420000D+02  0.4024869267D-01
  0.4803310000D+01  0.2375939567D+00
  0.1459330000D+01  0.8158538515D+00
 p    1  1.00
  0.4834560000D+00  0.1000000000D+01
 p    1  1.00
  0.1455850000D+00  0.1000000000D+01
 d    1  1.00
  0.6260000000D+00  0.1000000000D+01
  
   9 0
 s    3  1.00
  0.3386500000D+02  0.2549381454D-01
  0.5094790000D+01  0.1903731086D+00
  0.1158790000D+01  0.8521614860D+00
 s    1  1.00
  0.3258400000D+00  0.1000000000D+01
 s    1  1.00
  0.1027410000D+00  0.1000000000D+01
 p    1  1.00
  0.7500000000D+00  0.1000000000D+01
  
  10 0
 s    3  1.00
  0.3386500000D+02  0.2549381454D-01
  0.5094790000D+01  0.1903731086D+00
  0.1158790000D+01  0.8521614860D+00
 s    1  1.00
  0.3258400000D+00  0.1000000000D+01
 s    1  1.00
  0.1027410000D+00  0.1000000000D+01
 p    1  1.00
  0.7500000000D+00  0.1000000000D+01
  
  11 0
 s    6  1.00
  0.4563240000D+04  0.1966650249D-02
  0.6820240000D+03  0.1523060193D-01
  0.1549730000D+03  0.7612690966D-01
  0.4445530000D+02  0.2608010331D+00
  0.1302900000D+02  0.6164620782D+00
  0.1827730000D+01  0.2210060280D+00
 s    3  1.00
  0.2096420000D+02  0.1146600807D+00
  0.4803310000D+01  0.9199996477D+00
  0.1459330000D+01 -0.3030682134D-02
 s    1  1.00
  0.4834560000D+00  0.1000000000D+01
 s    1  1.00
  0.1455850000D+00  0.1000000000D+01
 p    3  1.00
  0.2096420000D+02  0.4024869267D-01
  0.4803310000D+01  0.2375939567D+00
  0.1459330000D+01  0.8158538515D+00
 p    1  1.00
  0.4834560000D+00  0.1000000000D+01
 p    1  1.00
  0.1455850000D+00  0.1000000000D+01
 d    1  1.00
  0.6260000000D+00  0.1000000000D+01
  
  12 0
 s    3  1.00
  0.3386500000D+02  0.2549381454D-01
  0.5094790000D+01  0.1903731086D+00
  0.1158790000D+01  0.8521614860D+00
 s    1  1.00
  0.3258400000D+00  0.1000000000D+01
 s    1  1.00
  0.1027410000D+00  0.1000000000D+01
 p    1  1.00
  0.7500000000D+00  0.1000000000D+01
  
  13 0
 s    3  1.00
  0.3386500000D+02  0.2549381454D-01
  0.5094790000D+01  0.1903731086D+00
  0.1158790000D+01  0.8521614860D+00
 s    1  1.00
  0.3258400000D+00  0.1000000000D+01
 s    1  1.00
  0.1027410000D+00  0.1000000000D+01
 p    1  1.00
  0.7500000000D+00  0.1000000000D+01
  
  14 0
 s    6  1.00
  0.8588500000D+04  0.1895150083D-02
  0.1297230000D+04  0.1438590063D-01
  0.2992960000D+03  0.7073200310D-01
  0.8737710000D+02  0.2400010105D+00
  0.2567890000D+02  0.5947970261D+00
  0.3740040000D+01  0.2808020123D+00
 s    3  1.00
  0.4211750000D+02  0.1138890124D+00
  0.9628370000D+01  0.9208111006D+00
  0.2853320000D+01 -0.3274470358D-02
 s    1  1.00
  0.9056610000D+00  0.1000000000D+01
 s    1  1.00
  0.2556110000D+00  0.1000000000D+01
 p    3  1.00
  0.4211750000D+02  0.3651139738D-01
  0.9628370000D+01  0.2371529830D+00
  0.2853320000D+01  0.8197019412D+00
 p    1  1.00
  0.9056610000D+00  0.1000000000D+01
 p    1  1.00
  0.2556110000D+00  0.1000000000D+01
 d    1  1.00
  0.1292000000D+01  0.1000000000D+01
  
  15 0
 s    3  1.00
  0.3386500000D+02  0.2549381454D-01
  0.5094790000D+01  0.1903731086D+00
  0.1158790000D+01  0.8521614860D+00
 s    1  1.00
  0.3258400000D+00  0.1000000000D+01
 s    1  1.00
  0.1027410000D+00  0.1000000000D+01
 p    1  1.00
  0.7500000000D+00  0.1000000000D+01


[MO]
 Sym=      1.1
 Ene=     -20.5399
 Spin= Alpha
 Occup=    2.000000
1 0.000000083457014
2 -0.000000117721830
3 0.000007923131088
4 -0.000071970367217
5 -0.000000000343096
6 0.000000566587116
7 -0.000001531392363
8 0.000000001583596
9 -0.000002250216408
10 0.000004786684068
11 -0.000000007667601
12 0.000032352682214
13 0.000046574970818
14 -0.000002056846156
15 0.000002761635166
16 -0.000000704789010
17 -0.000000000147290
18 -0.000000000014272
19 0.000000158732002
20 -0.000000614313830
21 0.000017532609432
22 0.000006594763564
23 0.000003868190170
24 -0.000002740733983
25 -0.000000214050746
26 -0.000000918909554
27 0.000000702488118
28 -0.000005164036233
29 0.000000000286807
30 0.000002635534334
31 -0.000004304447142
32 -0.000000613931659
33 0.000017532022720
34 0.000006600792828
35 -0.000003867427052
36 -0.000002741308817
37 -0.000000213997143
38 -0.000000440702880
39 0.000001351022470
40 -0.000050589934451
41 0.000543447934697
42 0.000000000362630
43 -0.000000269716112
44 0.000003229914482
45 -0.000000000528859
46 0.000008070610520
47 -0.000014386079387
48 0.000000010310754
49 -0.000076915295635
50 -0.000232420728048
51 -0.000001173485853
52 -0.000006479801042
53 0.000007653286895
54 0.000000002300039
55 0.000000000103104
56 0.000012495087378
57 0.000008001278334
58 -0.000080005286947
59 0.000015376028882
60 -0.000009549523516
61 0.000004096546066
62 0.000005663846933
63 0.000008002041217
64 -0.000080013468872
65 0.000015383440570
66 0.000009549686318
67 0.000004098547854
68 0.000005664824932
69 0.000002079940790
70 -0.000006178980727
71 0.000063781559035
72 -0.000737590541623
73 -0.000000000014979
74 -0.000002142205350
75 0.000007737032537
76 0.000000004932756
77 0.000007616638834
78 -0.000003877466160
79 0.000000043205191
80 -0.000324462578777
81 -0.000017233934693
82 0.000003262501730
83 -0.000001290190733
84 -0.000001972310997
85 -0.000000001435226
86 0.000000000819578
87 -0.000014350847498
88 0.000012618305352
89 -0.000040143161613
90 -0.000021208805082
91 -0.000011778207124
92 0.000002403486437
93 0.000022772767769
94 0.000012622038751
95 -0.000040161397037
96 -0.000021237242128
97 0.000011783741761
98 0.000002399768944
99 0.000022775251158
100 -0.000002908755588
101 -0.000029093548551
102 0.000052290525609
103 0.000974893988674
104 -0.000000000120783
105 -0.000035319822049
106 -0.000012799532487
107 -0.000000012737518
108 -0.000100421620562
109 -0.000245196617888
110 -0.000000017211652
111 -0.000402838612607
112 -0.000035463730743
113 -0.000054955110335
114 -0.000033048556214
115 0.000088003666549
116 0.000000006156014
117 0.000000006244593
118 0.000114907190450
119 0.000008142377739
120 -0.000079058431269
121 0.000000346063696
122 -0.000016088566035
123 0.000033665944614
124 0.000020686419435
125 0.000008143687859
126 -0.000079064883757
127 0.000000331526223
128 0.000016089907500
129 0.000033667189599
130 0.000020684993874
131 0.55144032546288
132 0.47166022259189
133 0.005697990031143
134 -0.001020859419916
135 -0.000000020337994
136 0.001712539374391
137 -0.000153391024190
138 0.000000008784911
139 -0.000631293775501
140 0.000091019961294
141 -0.000000014218079
142 -0.000022916359224
143 -0.000330318821107
144 0.000149061037998
145 -0.000025677388491
146 -0.000123383649507
147 -0.000000001154762
148 -0.000000017025356
149 -0.000056627089925
150 0.000213924769919
151 0.000083939874658
152 0.000045331815264
153 0.000000005425179
154 0.000014820889646
155 0.000103209375301
 Sym=      2.1
 Ene=     -11.2667
 Spin= Alpha
 Occup=    2.000000
1 0.000010417046871
2 0.000009497690700
3 -0.000033552679250
4 0.000421803723445
5 0.000000000062478
6 0.000000868191499
7 0.000000147404272
8 -0.000000000441487
9 -0.000004298483982
10 0.000000173529933
11 0.000000003804789
12 0.000050743877243
13 -0.000163432560824
14 -0.000001276697997
15 -0.000004109797704
16 0.000005386495701
17 -0.000000000058048
18 -0.000000000284836
19 0.000001206498175
20 0.000005368429525
21 -0.000056627531960
22 -0.000000764358811
23 -0.000007307594508
24 -0.000004297921028
25 0.000002829822029
26 0.000002957802358
27 -0.000038083405109
28 0.000032137531981
29 -0.000000000462501
30 0.000003755579623
31 0.000005195570873
32 0.000005368094590
33 -0.000056626668900
34 -0.000000764094449
35 0.000007307586327
36 -0.000004296922582
37 0.000002830187799
38 -0.000035922339912
39 -0.000027996885058
40 -0.000030751986692
41 -0.000027409083564
42 -0.000000000377411
43 -0.000000780282016
44 0.000004207120379
45 0.000000002769470
46 -0.000002334692385
47 0.000013668590968
48 0.000000003375326
49 0.000193574180214
50 -0.000297308823933
51 -0.000002700044468
52 -0.000011646418608
53 0.000014346463075
54 0.000000001131943
55 -0.000000000344525
56 0.000002638086728
57 0.000003683408773
58 -0.000068330652368
59 -0.000043021179481
60 -0.000011069028087
61 -0.000003681613713
62 0.000018643510445
63 0.000003685014760
64 -0.000068338485914
65 -0.000043010725215
66 0.000011069504848
67 -0.000003679475343
68 0.000018644609245
69 0.003217544196694
70 0.002614210781163
71 0.000250818077613
72 0.000598733206013
73 -0.000000003534465
74 0.000093954836630
75 -0.000111823698091
76 -0.000000013433299
77 0.000101333476676
78 -0.000221069650128
79 -0.000000019549655
80 0.000231941461459
81 -0.000337863579261
82 -0.000049814013863
83 -0.000034228044989
84 0.000084042058852
85 0.000000002953312
86 0.000000005791584
87 -0.000074475897954
88 -0.000009657361432
89 0.000025589998815
90 0.000028756922802
91 0.000010092275591
92 0.000013123775415
93 -0.000006449581565
94 -0.000009657998192
95 0.000025608266442
96 0.000028759553626
97 -0.000010099692636
98 0.000013128399333
99 -0.000006452484768
100 0.56345789416781
101 0.46655339808560
102 0.004125627728791
103 -0.002175854778998
104 -0.000000030251153
105 -0.000530086383003
106 -0.000859375434921
107 0.000000015594889
108 0.000422627164022
109 0.000637795378851
110 -0.000000010493809
111 0.000040903509503
112 -0.000493646365450
113 0.000136617727574
114 -0.000011689306194
115 -0.000124928421380
116 -0.000000014226531
117 -0.000000012732137
118 -0.000204803418085
119 0.000322186978772
120 0.000293909080073
121 0.000273743364092
122 -0.000013016364355
123 -0.000041090061601
124 -0.000007290263539
125 0.000322188723572
126 0.000293894244713
127 0.000273753556933
128 0.000013008944947
129 -0.000041085815561
130 -0.000007295167831
131 -0.000072025393665
132 -0.000127481657469
133 0.000270571348208
134 0.000517030536320
135 0.000000003249461
136 0.000072658628021
137 0.000079435946371
138 0.000000020610652
139 0.000340052460820
140 0.000437509798804
141 0.000000004997189
142 0.000133820635293
143 0.000164693330517
144 -0.000108027293104
145 0.000032439974336
146 0.000075587318767
147 0.000000009018456
148 0.000000009422730
149 0.000200491640726
150 -0.000008652733068
151 -0.000022911688346
152 -0.000047975528242
153 0.000000001234699
154 -0.000026421212309
155 0.000018497625334
 Sym=      3.1
 Ene=     -11.2180
 Spin= Alpha
 Occup=    2.000000
1 0.020046139831630
2 0.016542893949246
3 0.000371324772058
4 0.000839023819933
5 0.000000000616580
6 0.000067701988936
7 -0.000094397038506
8 0.000000001877510
9 0.000191659092633
10 -0.000301751948708
11 -0.000000003687703
12 0.000205148715123
13 -0.000286534522653
14 -0.000076649609971
15 -0.000016402045142
16 0.000093051655113
17 0.000000000809035
18 -0.000000002727781
19 -0.000107201458305
20 0.000011803966171
21 -0.000019060473247
22 0.000004545400913
23 0.000012632238410
24 0.000013985969671
25 -0.000009594716667
26 0.000020393633030
27 -0.000066622776360
28 -0.000033096806131
29 0.000000000756318
30 -0.000003667021563
31 -0.000000103649938
32 0.000011803449442
33 -0.000019057158466
34 0.000004548179314
35 -0.000012633348070
36 0.000013984915437
37 -0.000009595705496
38 0.56251030808915
39 0.46581664891929
40 0.004480752731708
41 -0.002670430959479
42 0.000000003116731
43 -0.000023765401461
44 0.000016564908950
45 -0.000000003879003
46 0.000070240664038
47 -0.000020082844560
48 -0.000000000133329
49 0.000338432752802
50 0.000043711038651
51 0.000075338230263
52 0.000006560349453
53 -0.000081898579716
54 0.000000003954699
55 0.000000006478947
56 0.000001500841695
57 0.000330984654425
58 0.000329329101858
59 0.000232196723550
60 0.000020614319853
61 -0.000044368613952
62 -0.000000501427997
63 0.000330985373320
64 0.000329323488536
65 0.000232185447265
66 -0.000020610821614
67 -0.000044369321570
68 -0.000000502786379
69 0.023791130574194
70 0.019646721078269
71 0.000388712525989
72 0.000823961514856
73 -0.000000005253239
74 0.000078366860341
75 0.000097313908505
76 -0.000000016435761
77 0.000170209216598
78 0.000292036532172
79 -0.000000040413065
80 0.000283619917428
81 0.000351722863743
82 -0.000075400320601
83 -0.000018234139370
84 0.000093634459971
85 -0.000000005137874
86 -0.000000009016258
87 0.000116863117790
88 0.000009441474980
89 0.000010829761968
90 0.000035897567772
91 0.000018350282784
92 0.000014804606088
93 0.000003463875121
94 0.000009440383210
95 0.000010840894334
96 0.000035908549934
97 -0.000018354067485
98 0.000014803680279
99 0.000003463553909
100 -0.000102240727891
101 -0.000084602709610
102 -0.000019022280368
103 -0.000005336763870
104 -0.000000000507208