
 Working directory              : /tmp/zwa/molpro.6PYm1fUYZy/
 Global scratch directory       : /tmp/zwa/molpro.6PYm1fUYZy/
 Wavefunction directory         : /home/zwa/wfu/
 Main file repository           : /tmp/zwa/molpro.6PYm1fUYZy/

 id        : liedlgroup

 Nodes     nprocs
 rh2-c724     1
 GA implementation: MPI file
 GA implementation (serial work in mppx): MPI file

 Using customized tuning parameters: mindgm=1; mindgv=20; mindgc=4; mindgr=1; noblas=0; minvec=7
 default implementation of scratch files=df  


 Variables initialized (1025), CPU time= 0.01 sec
 
  memory, 500, m                                                                  ! Memory Requirements
  orient,mass
  geometry = {
  C ,                 3.29945668,    4.82100600,    3.46740757
  H  ,                3.65611111 ,   3.81219600 ,   3.46740757
  H ,                 3.65612952,    5.32540419 ,   4.34105907
  H ,                 3.65612952 ,   5.32540419 ,   2.59375606
  C ,                 1.75945668,    4.82102498,    3.46740757
  H ,                 1.40278410,    4.31493325 ,   4.34007923
  H ,                 1.40280276 ,   5.82983326,    3.46936357
  C ,                 1.24611416,    4.09750793 ,   2.20859759
  H ,                 1.60307691 ,   3.08880927 ,   2.20645298
  H ,                 1.60247847 ,   4.60381733 ,   1.33592625
  C ,                -0.29388575 ,   4.09705617 ,   2.20886902
  H ,                -0.65084763 ,   5.10575496  ,  2.21109666
  H ,                -0.65025027 ,   3.59067532 ,   3.08149881
  O ,                -0.77056098 ,   3.42531453   , 1.03991911
  H ,                -1.93671037  ,  3.03292904  ,  1.28776282
  }
 
  mass, iso
  basis=6-311g(d,p)
 
  {hf
  start,atden}
 
  optg
  {frequencies, symm=auto, print=0,analytical}
  put,molden,butanoltrans.molden
 Commands initialized (840), CPU time= 0.01 sec, 684 directives.
 Default parameters read. Elapsed time= 0.07 sec

 Checking input...
 Passed
1


                                         ***  PROGRAM SYSTEM MOLPRO  ***
                                       Copyright, TTI GmbH Stuttgart, 2015
                                    Version 2022.3 linked Wed Nov 30 12:40:34 2022


 **********************************************************************************************************************************
 LABEL *                                                                                 
  (8 PROC) 64 bit serial version                                                         DATE: 05-Aug-25          TIME: 17:15:31  
 **********************************************************************************************************************************

 SHA1:             e31ec9a5ea85254ab76f59d122cbdd51c71cf98b
 **********************************************************************************************************************************

 Memory per process:       500 MW
 Total memory per node:    500 MW

 GA preallocation disabled
 GA check disabled

 Variable memory set to 500.0 MW

 ZCENTRE=MASS


 Geometry recognized as XYZ



 Using masses of most abundant isotopes

 **********************************************************************************************************************************
 SETTING BASIS          =    6-311G(D,P)


 Recomputing integrals since basis changed


 Using spherical harmonics

 Library entry C      S 6-311G               selected for orbital group  1
 Library entry C      P 6-311G               selected for orbital group  1
 Library entry C      D 6-311G*              selected for orbital group  1
 Library entry H      S 6-311G               selected for orbital group  2
 Library entry H      P 6-311G**             selected for orbital group  2
 Library entry O      S 6-311G               selected for orbital group  9
 Library entry O      P 6-311G               selected for orbital group  9
 Library entry O      D 6-311G*              selected for orbital group  9


 PROGRAM * SEWARD (Integral evaluation for generally contracted gaussian basis sets)     Author: Roland Lindh, 1990

 Geometry written to block  1 of record 700

 Orientation using atomic masses  
 Molecule type: Asymmetric top
 Rotational constants:       1.8685822      1.9717881     18.8094204 GHz

 Point group  C1  



 ATOMIC COORDINATES

 NR  ATOM    CHARGE       X              Y              Z

   1  C       6.00   -0.025505977   -0.596504308    4.855407025
   2  H       1.00   -1.690631562   -1.743516945    4.870602831
   3  H       1.00   -0.019704213    0.604782308    6.481872179
   4  H       1.00    1.610999682   -1.783630866    4.888451212
   5  C       6.00    0.007334104    1.033955750    2.445083630
   6  H       1.00   -1.631039671    2.218451013    2.410234694
   7  H       1.00    1.670631377    2.183640219    2.431671435
   8  C       6.00    0.004302938   -0.695058661    0.104221090
   9  H       1.00   -1.658644779   -1.845244305    0.118003658
  10  H       1.00    1.643040625   -1.879061095    0.138704995
  11  C       6.00    0.036116250    0.935413294   -2.306108029
  12  H       1.00    1.698986673    2.085711611   -2.319813447
  13  H       1.00   -1.602700051    2.119304661   -2.340668613
  14  O       8.00    0.033509970   -0.670102206   -4.479764773
  15  H       1.00   -0.817660450    0.604047880   -6.290162290

 Bond lengths in Bohr (Angstrom)

 1-2  2.022006952  1-3  2.022006947  1-4  2.022006962  1-5  2.910178232  5-6  2.022006949
     ( 1.069999999)     ( 1.069999996)     ( 1.070000005)     ( 1.540000000)     ( 1.069999998)

  5- 7  2.022006945   5- 8  2.910178250   8- 9  2.022006945   8-10  2.022006951   8-11  2.910178232
       ( 1.069999996)       ( 1.540000010)       ( 1.069999996)       ( 1.069999999)       ( 1.540000000)

 11-12  2.022006949  11-13  2.022006942  11-14  2.702308357  14-15  2.371811269
       ( 1.069999998)       ( 1.069999994)       ( 1.429999999)       ( 1.255108472)

 Bond angles

  1-5-6  109.47120227   1-5-7  109.47120292   1-5-8  109.47123114   2-1-3  109.47120247

  2-1-4  109.47120232   2-1-5  109.47123181   3-1-4  109.47125087   3-1-5  109.47121825

  4- 1- 5  109.47121809   5- 8- 9  109.47120255   5- 8-10  109.47123118   5- 8-11  109.47120202

  6- 5- 7  109.47125127   6- 5- 8  109.47121803   7- 5- 8  109.47121817   8-11-12  109.47120265

  8-11-13  109.47123117   8-11-14  109.47120195   9- 8-10  109.47121841   9- 8-11  109.47125127

 10- 8-11  109.47121837  11-14-15  107.16661875  12-11-13  109.47121885  12-11-14  109.47125085

 13-11-14  109.47121834

 NUCLEAR CHARGE:                   42
 NUMBER OF PRIMITIVE AOS:         240
 NUMBER OF SYMMETRY AOS:          235
 NUMBER OF CONTRACTIONS:          150   (  150A   )
 NUMBER OF INNER CORE ORBITALS:     0   (    0A   )
 NUMBER OF OUTER CORE ORBITALS:     5   (    5A   )
 NUMBER OF VALENCE ORBITALS:       30   (   30A   )


 NUCLEAR REPULSION ENERGY  184.19723178


 Eigenvalues of metric

         1 0.163E-02 0.405E-02 0.547E-02 0.666E-02 0.124E-01 0.169E-01 0.185E-01 0.192E-01


 Contracted 2-electron integrals neglected if value below      1.0D-11
 AO integral compression algorithm  1   Integral accuracy      1.0D-11

     192.676 MB (compressed) written to integral file ( 35.4%)


 NUMBER OF SORTED TWO-ELECTRON INTEGRALS:   64133475.     BUFFER LENGTH:  32768
 NUMBER OF SEGMENTS:   5  SEGMENT LENGTH:   15999503      RECORD LENGTH: 524288

 Memory used in sort:      16.56 MW

 SORT1 READ    68082930. AND WROTE    46232812. INTEGRALS IN    135 RECORDS. CPU TIME:     0.69 SEC, REAL TIME:     1.03 SEC
 SORT2 READ    46232812. AND WROTE    64133475. INTEGRALS IN    735 RECORDS. CPU TIME:     0.82 SEC, REAL TIME:     0.98 SEC

 FILE SIZES:   FILE 1:   223.7 MBYTE,  FILE 4:   566.3 MBYTE,   TOTAL:    790.0 MBYTE

 OPERATOR DM      FOR CENTER  0  COORDINATES:    0.000000    0.000000    0.000000


 **********************************************************************************************************************************
 DATASETS  * FILE   NREC   LENGTH (MB)   RECORD NAMES
              1      19      188.73       500      610      700      900      950      970     1000      129      960     1100   
                                          VAR    BASINP    GEOM    SYMINP    ZMAT    AOBASIS   BASIS     P2S    ABASIS      S 
                                         1400     1410     1200     1210     1080     1600     1650     1300     1700   
                                           T        V       H0       H01     AOSYM     SMH    MOLCAS    ERIS     OPER   

 PROGRAMS   *        TOTAL       INT
 CPU TIMES  *         5.30      5.17
 REAL TIME  *         6.09 SEC
 DISK USED  *       753.92 MB
 **********************************************************************************************************************************


 Program * Restricted Hartree-Fock

 Orbital guess generated from atomic densities.

 Initial occupancy:  21

 NELEC=   42   SYM=1   MS2= 0   THRE=1.0D-08   THRD=1.0D-06   THRG=1.0D-06  HFMA2=F  DIIS_START=2   DIIS_MAX=10   DIIS_INCORE=F

 Level shifts:    0.00 (CLOSED)    0.00 (OPEN)    0.30 (GAP_MIN)

 ITER           ETOT              DE          GRAD        DDIFF     DIIS  NEXP   TIME(IT)  TIME(TOT)  DIAG
   1     -232.05722502    -232.05722502     0.00D+00     0.32D-01     0     0       4.13      8.30    start
   2     -232.13061416      -0.07338913     0.51D-02     0.44D-02     1     0       4.17     12.47    diag
   3     -232.14767875      -0.01706460     0.29D-02     0.19D-02     2     0       4.23     16.70    diag
   4     -232.14967580      -0.00199705     0.69D-03     0.62D-03     3     0       4.16     20.86    diag
   5     -232.14984672      -0.00017092     0.21D-03     0.20D-03     4     0       4.18     25.04    diag
   6     -232.14986547      -0.00001874     0.57D-04     0.69D-04     5     0       4.23     29.27    diag
   7     -232.14986769      -0.00000222     0.19D-04     0.24D-04     6     0       4.10     33.37    diag
   8     -232.14986791      -0.00000022     0.53D-05     0.79D-05     7     0       4.14     37.51    fixocc
   9     -232.14986793      -0.00000002     0.16D-05     0.20D-05     8     0       4.17     41.68    diag
  10     -232.14986793      -0.00000000     0.45D-06     0.72D-06     9     0       4.22     45.90    diag/orth
  11     -232.14986793      -0.00000000     0.12D-06     0.11D-06     0     0       4.17     50.07    diag

 Final occupancy:  21

 !RHF STATE 1.1 Energy               -232.149867929059
  RHF One-electron energy            -679.994680181386
  RHF Two-electron energy             263.647580477004
  RHF Kinetic energy                  231.952986372694
  RHF Nuclear energy                  184.197231775322
  RHF Virial quotient                  -1.000848799403

 !RHF STATE 1.1 Dipole moment          -0.25631216     0.71461057     0.04388187
 Dipole moment /Debye                  -0.65148053     1.81635889     0.11153658

 Orbital energies:

           1.1          2.1          3.1          4.1          5.1          6.1          7.1          8.1          9.1         10.1
    -20.562385   -11.262032   -11.214026   -11.209203   -11.203744    -1.305573    -1.069641    -0.966262    -0.848318    -0.802001

          11.1         12.1         13.1         14.1         15.1         16.1         17.1         18.1         19.1         20.1
     -0.666418    -0.626334    -0.608392    -0.584074    -0.556571    -0.530136    -0.496333    -0.483961    -0.475404    -0.449552

          21.1         22.1         23.1
     -0.429408     0.117084     0.160798


 HOMO     21.1    -0.429408 =     -11.6848eV
 LUMO     22.1     0.117084 =       3.1860eV
 LUMO-HOMO         0.546492 =      14.8708eV

 Orbitals saved in record  2100.2


 **********************************************************************************************************************************
 DATASETS  * FILE   NREC   LENGTH (MB)   RECORD NAMES
              1      19      188.73       500      610      700      900      950      970     1000      129      960     1100   
                                          VAR    BASINP    GEOM    SYMINP    ZMAT    AOBASIS   BASIS     P2S    ABASIS      S 
                                         1400     1410     1200     1210     1080     1600     1650     1300     1700   
                                           T        V       H0       H01     AOSYM     SMH    MOLCAS    ERIS     OPER   

              2       4        0.94       700     1000      520     2100   
                                         GEOM     BASIS   MCVARS     RHF  

 PROGRAMS   *        TOTAL    HF-SCF       INT
 CPU TIMES  *        55.42     50.12      5.17
 REAL TIME  *        16.23 SEC
 DISK USED  *       753.92 MB
 **********************************************************************************************************************************


 PROGRAM * OPT (Geometry optimization)     Authors: F. Eckert and H.-J. Werner


 BFGS update of hessian

 *** Long output written to logfile /home/zwa/Overlap_Integral_Project/overlap_integral_gaussian/molpro_files/butanol/butanoltrans.log ***


 Geometry optimization using default procedure for command HF-SCF

 Geometry written to block  1 of record 700

 Entering BMAT geometry-optimization, modelhes=F
 Optimization method: RF

 ITER.   ENERGY(OLD)    ENERGY(NEW)      DE          GRADMAX     GRADNORM    GRADRMS     STEPMAX     STEPLEN     STEPRMS   CPU-time
   1  -232.14986793  -232.17360334    -0.02373541  0.10689772  0.20787843  0.03098869  0.10857044  0.24747902  0.06389881     78.68
   2  -232.17360334  -232.20714253    -0.03353919  0.10257785  0.18963211  0.02826869  0.22874673  0.31987280  0.08259080    157.80
   3  -232.20714253  -232.20424581     0.00289671  0.05561926  0.10321580  0.01538650  0.15975704  0.29166660  0.07530799    232.65
   4  -232.20424581  -232.21188610    -0.00764029  0.10816231  0.18358516  0.02736726  0.06407398  0.07993410  0.02063889    306.92
   5  -232.21188610  -232.21304854    -0.00116244  0.03972915  0.06553251  0.00976901  0.04467408  0.06575289  0.01697732    381.64
   6  -232.21304854  -232.21348196    -0.00043341  0.01926925  0.03193904  0.00476119  0.06850172  0.09144829  0.02361185    456.45
   7  -232.21348196  -232.21361749    -0.00013553  0.00751329  0.01156304  0.00172372  0.09431493  0.11728615  0.03028315    530.79
   8  -232.21361749  -232.21364274    -0.00002525  0.00282708  0.00426012  0.00063506  0.03993505  0.05477432  0.01414267    605.66
