
 Working directory              : /tmp/zwa/molpro.pWC2Sj1ngT/
 Global scratch directory       : /tmp/zwa/molpro.pWC2Sj1ngT/
 Wavefunction directory         : /home/zwa/wfu/
 Main file repository           : /tmp/zwa/molpro.pWC2Sj1ngT/

 id        : liedlgroup

 Nodes     nprocs
 rh2-c724     1
 GA implementation: MPI file
 GA implementation (serial work in mppx): MPI file

 Using customized tuning parameters: mindgm=1; mindgv=20; mindgc=4; mindgr=1; noblas=0; minvec=7
 default implementation of scratch files=df  


 Variables initialized (1025), CPU time= 0.01 sec
 
  memory, 500, m                                                                  ! Memory Requirements
  orient,mass
  geometry = {
  C ,                 3.29945668,    4.82100600,    3.46740757
  H  ,                3.65611111 ,   3.81219600 ,   3.46740757
  H ,                 3.65612952,    5.32540419 ,   4.34105907
  H ,                 3.65612952 ,   5.32540419 ,   2.59375606
  C ,                 1.75945668,    4.82102498,    3.46740757
  H ,                 1.40278410,    4.31493325 ,   4.34007923
  H ,                 1.40280276 ,   5.82983326,    3.46936357
  C ,                 1.24611416,    4.09750793 ,   2.20859759
  H ,                 1.60307691 ,   3.08880927 ,   2.20645298
  H ,                 1.60247847 ,   4.60381733 ,   1.33592625
  C ,                -0.29388575 ,   4.09705617 ,   2.20886902
  H ,                -0.65084763 ,   5.10575496  ,  2.21109666
  H ,                -0.65025027 ,   3.59067532 ,   3.08149881
  O ,                -0.77056098 ,   3.42531453   , 1.03991911
  H ,                -1.93671037  ,  3.03292904  ,  1.28776282
  }
 
  mass, iso
  basis=6-311g(d,p)
 
  {hf
  start,atden}
 
  optg
  {frequencies, symm=auto, print=0,analytical}
  put,molden,butanoltrans.molden
 Commands initialized (840), CPU time= 0.01 sec, 684 directives.
 Default parameters read. Elapsed time= 0.09 sec

 Checking input...
 Passed
1


                                         ***  PROGRAM SYSTEM MOLPRO  ***
                                       Copyright, TTI GmbH Stuttgart, 2015
                                    Version 2022.3 linked Wed Nov 30 12:40:34 2022


 **********************************************************************************************************************************
 LABEL *                                                                                 
  (8 PROC) 64 bit serial version                                                         DATE: 05-Aug-25          TIME: 17:19:12  
 **********************************************************************************************************************************

 SHA1:             e31ec9a5ea85254ab76f59d122cbdd51c71cf98b
 **********************************************************************************************************************************

 Memory per process:       500 MW
 Total memory per node:    500 MW

 GA preallocation disabled
 GA check disabled

 Variable memory set to 500.0 MW

 ZCENTRE=MASS


 Geometry recognized as XYZ



 Using masses of most abundant isotopes

 **********************************************************************************************************************************
 SETTING BASIS          =    6-311G(D,P)


 Recomputing integrals since basis changed


 Using spherical harmonics

 Library entry C      S 6-311G               selected for orbital group  1
 Library entry C      P 6-311G               selected for orbital group  1
 Library entry C      D 6-311G*              selected for orbital group  1
 Library entry H      S 6-311G               selected for orbital group  2
 Library entry H      P 6-311G**             selected for orbital group  2
 Library entry O      S 6-311G               selected for orbital group  9
 Library entry O      P 6-311G               selected for orbital group  9
 Library entry O      D 6-311G*              selected for orbital group  9


 PROGRAM * SEWARD (Integral evaluation for generally contracted gaussian basis sets)     Author: Roland Lindh, 1990

 Geometry written to block  1 of record 700

 Orientation using atomic masses  
 Molecule type: Asymmetric top
 Rotational constants:       1.8685822      1.9717881     18.8094204 GHz

 Point group  C1  



 ATOMIC COORDINATES

 NR  ATOM    CHARGE       X              Y              Z

   1  C       6.00   -0.025505977   -0.596504308    4.855407025
   2  H       1.00   -1.690631562   -1.743516945    4.870602831
   3  H       1.00   -0.019704213    0.604782308    6.481872179
   4  H       1.00    1.610999682   -1.783630866    4.888451212
   5  C       6.00    0.007334104    1.033955750    2.445083630
   6  H       1.00   -1.631039671    2.218451013    2.410234694
   7  H       1.00    1.670631377    2.183640219    2.431671435
   8  C       6.00    0.004302938   -0.695058661    0.104221090
   9  H       1.00   -1.658644779   -1.845244305    0.118003658
  10  H       1.00    1.643040625   -1.879061095    0.138704995
  11  C       6.00    0.036116250    0.935413294   -2.306108029
  12  H       1.00    1.698986673    2.085711611   -2.319813447
  13  H       1.00   -1.602700051    2.119304661   -2.340668613
  14  O       8.00    0.033509970   -0.670102206   -4.479764773
  15  H       1.00   -0.817660450    0.604047880   -6.290162290

 Bond lengths in Bohr (Angstrom)

 1-2  2.022006952  1-3  2.022006947  1-4  2.022006962  1-5  2.910178232  5-6  2.022006949
     ( 1.069999999)     ( 1.069999996)     ( 1.070000005)     ( 1.540000000)     ( 1.069999998)

  5- 7  2.022006945   5- 8  2.910178250   8- 9  2.022006945   8-10  2.022006951   8-11  2.910178232
       ( 1.069999996)       ( 1.540000010)       ( 1.069999996)       ( 1.069999999)       ( 1.540000000)

 11-12  2.022006949  11-13  2.022006942  11-14  2.702308357  14-15  2.371811269
       ( 1.069999998)       ( 1.069999994)       ( 1.429999999)       ( 1.255108472)

 Bond angles

  1-5-6  109.47120227   1-5-7  109.47120292   1-5-8  109.47123114   2-1-3  109.47120247

  2-1-4  109.47120232   2-1-5  109.47123181   3-1-4  109.47125087   3-1-5  109.47121825

  4- 1- 5  109.47121809   5- 8- 9  109.47120255   5- 8-10  109.47123118   5- 8-11  109.47120202

  6- 5- 7  109.47125127   6- 5- 8  109.47121803   7- 5- 8  109.47121817   8-11-12  109.47120265

  8-11-13  109.47123117   8-11-14  109.47120195   9- 8-10  109.47121841   9- 8-11  109.47125127

 10- 8-11  109.47121837  11-14-15  107.16661875  12-11-13  109.47121885  12-11-14  109.47125085

 13-11-14  109.47121834

 NUCLEAR CHARGE:                   42
 NUMBER OF PRIMITIVE AOS:         240
 NUMBER OF SYMMETRY AOS:          235
 NUMBER OF CONTRACTIONS:          150   (  150A   )
 NUMBER OF INNER CORE ORBITALS:     0   (    0A   )
 NUMBER OF OUTER CORE ORBITALS:     5   (    5A   )
 NUMBER OF VALENCE ORBITALS:       30   (   30A   )


 NUCLEAR REPULSION ENERGY  184.19723178


 Eigenvalues of metric

         1 0.163E-02 0.405E-02 0.547E-02 0.666E-02 0.124E-01 0.169E-01 0.185E-01 0.192E-01


 Contracted 2-electron integrals neglected if value below      1.0D-11
 AO integral compression algorithm  1   Integral accuracy      1.0D-11

     192.676 MB (compressed) written to integral file ( 35.4%)


 NUMBER OF SORTED TWO-ELECTRON INTEGRALS:   64133475.     BUFFER LENGTH:  32768
 NUMBER OF SEGMENTS:   5  SEGMENT LENGTH:   15999503      RECORD LENGTH: 524288

 Memory used in sort:      16.56 MW

 SORT1 READ    68082930. AND WROTE    46232812. INTEGRALS IN    135 RECORDS. CPU TIME:     0.81 SEC, REAL TIME:     1.24 SEC
 SORT2 READ    46232812. AND WROTE    64133475. INTEGRALS IN    735 RECORDS. CPU TIME:     0.92 SEC, REAL TIME:     1.09 SEC

 FILE SIZES:   FILE 1:   223.7 MBYTE,  FILE 4:   566.3 MBYTE,   TOTAL:    790.0 MBYTE

 OPERATOR DM      FOR CENTER  0  COORDINATES:    0.000000    0.000000    0.000000


 **********************************************************************************************************************************
 DATASETS  * FILE   NREC   LENGTH (MB)   RECORD NAMES
              1      19      188.73       500      610      700      900      950      970     1000      129      960     1100   
                                          VAR    BASINP    GEOM    SYMINP    ZMAT    AOBASIS   BASIS     P2S    ABASIS      S 
                                         1400     1410     1200     1210     1080     1600     1650     1300     1700   
                                           T        V       H0       H01     AOSYM     SMH    MOLCAS    ERIS     OPER   

 PROGRAMS   *        TOTAL       INT
 CPU TIMES  *         6.37      6.22
 REAL TIME  *         7.32 SEC
 DISK USED  *       753.92 MB
 **********************************************************************************************************************************


 Program * Restricted Hartree-Fock

 Orbital guess generated from atomic densities.

 Initial occupancy:  21

 NELEC=   42   SYM=1   MS2= 0   THRE=1.0D-08   THRD=1.0D-06   THRG=1.0D-06  HFMA2=F  DIIS_START=2   DIIS_MAX=10   DIIS_INCORE=F

 Level shifts:    0.00 (CLOSED)    0.00 (OPEN)    0.30 (GAP_MIN)

 ITER           ETOT              DE          GRAD        DDIFF     DIIS  NEXP   TIME(IT)  TIME(TOT)  DIAG
   1     -232.05722502    -232.05722502     0.00D+00     0.32D-01     0     0       4.20      8.33    start
   2     -232.13061416      -0.07338913     0.51D-02     0.44D-02     1     0       4.17     12.50    diag
   3     -232.14767875      -0.01706460     0.29D-02     0.19D-02     2     0       4.15     16.65    diag
   4     -232.14967580      -0.00199705     0.69D-03     0.62D-03     3     0       4.20     20.85    diag
   5     -232.14984672      -0.00017092     0.21D-03     0.20D-03     4     0       4.14     24.99    diag
   6     -232.14986547      -0.00001874     0.57D-04     0.69D-04     5     0       4.26     29.25    diag
   7     -232.14986769      -0.00000222     0.19D-04     0.24D-04     6     0       4.19     33.44    diag
   8     -232.14986791      -0.00000022     0.53D-05     0.79D-05     7     0       4.19     37.63    fixocc
   9     -232.14986793      -0.00000002     0.16D-05     0.20D-05     8     0       4.12     41.75    diag
  10     -232.14986793      -0.00000000     0.45D-06     0.72D-06     9     0       4.19     45.94    diag/orth
  11     -232.14986793      -0.00000000     0.12D-06     0.11D-06     0     0       4.12     50.06    diag

 Final occupancy:  21

 !RHF STATE 1.1 Energy               -232.149867929059
  RHF One-electron energy            -679.994680181386
  RHF Two-electron energy             263.647580477004
  RHF Kinetic energy                  231.952986372694
  RHF Nuclear energy                  184.197231775322
  RHF Virial quotient                  -1.000848799403

 !RHF STATE 1.1 Dipole moment          -0.25631216     0.71461057     0.04388187
 Dipole moment /Debye                  -0.65148053     1.81635889     0.11153658

 Orbital energies:

           1.1          2.1          3.1          4.1          5.1          6.1          7.1          8.1          9.1         10.1
    -20.562385   -11.262032   -11.214026   -11.209203   -11.203744    -1.305573    -1.069641    -0.966262    -0.848318    -0.802001

          11.1         12.1         13.1         14.1         15.1         16.1         17.1         18.1         19.1         20.1
     -0.666418    -0.626334    -0.608392    -0.584074    -0.556571    -0.530136    -0.496333    -0.483961    -0.475404    -0.449552

          21.1         22.1         23.1
     -0.429408     0.117084     0.160798


 HOMO     21.1    -0.429408 =     -11.6848eV
 LUMO     22.1     0.117084 =       3.1860eV
 LUMO-HOMO         0.546492 =      14.8708eV

 Orbitals saved in record  2100.2


 **********************************************************************************************************************************
 DATASETS  * FILE   NREC   LENGTH (MB)   RECORD NAMES
              1      19      188.73       500      610      700      900      950      970     1000      129      960     1100   
                                          VAR    BASINP    GEOM    SYMINP    ZMAT    AOBASIS   BASIS     P2S    ABASIS      S 
                                         1400     1410     1200     1210     1080     1600     1650     1300     1700   
                                           T        V       H0       H01     AOSYM     SMH    MOLCAS    ERIS     OPER   

              2       4        0.94       700     1000      520     2100   
                                         GEOM     BASIS   MCVARS     RHF  

 PROGRAMS   *        TOTAL    HF-SCF       INT
 CPU TIMES  *        56.48     50.10      6.22
 REAL TIME  *        17.45 SEC
 DISK USED  *       753.92 MB
 **********************************************************************************************************************************


 PROGRAM * OPT (Geometry optimization)     Authors: F. Eckert and H.-J. Werner


 BFGS update of hessian

 *** Long output written to logfile /home/zwa/Overlap_Integral_Project/overlap_integral_gaussian/molpro_files/butanol/butanoltrans.log ***


 Geometry optimization using default procedure for command HF-SCF

 Geometry written to block  1 of record 700

 Entering BMAT geometry-optimization, modelhes=F
 Optimization method: RF

 ITER.   ENERGY(OLD)    ENERGY(NEW)      DE          GRADMAX     GRADNORM    GRADRMS     STEPMAX     STEPLEN     STEPRMS   CPU-time
   1  -232.14986793  -232.17360334    -0.02373541  0.10689772  0.20787843  0.03098869  0.10857044  0.24747902  0.06389881     77.95
   2  -232.17360334  -232.20714253    -0.03353919  0.10257785  0.18963211  0.02826869  0.22874673  0.31987280  0.08259080    156.62
   3  -232.20714253  -232.20424581     0.00289671  0.05561926  0.10321580  0.01538650  0.15975704  0.29166660  0.07530799    231.16
   4  -232.20424581  -232.21188610    -0.00764029  0.10816231  0.18358516  0.02736726  0.06407398  0.07993410  0.02063889    305.40
   5  -232.21188610  -232.21304854    -0.00116244  0.03972915  0.06553251  0.00976901  0.04467408  0.06575289  0.01697732    379.71
   6  -232.21304854  -232.21348196    -0.00043341  0.01926925  0.03193904  0.00476119  0.06850172  0.09144829  0.02361185    453.94
   7  -232.21348196  -232.21361749    -0.00013553  0.00751329  0.01156304  0.00172372  0.09431493  0.11728615  0.03028315    528.26
   8  -232.21361749  -232.21364274    -0.00002525  0.00282708  0.00426012  0.00063506  0.03993505  0.05477432  0.01414267    598.60
   9  -232.21364274  -232.21365639    -0.00001366  0.00260839  0.00404617  0.00060317  0.02837584  0.03593152  0.00927748    668.85
  10  -232.21365639  -232.21366041    -0.00000401  0.00138324  0.00213809  0.00031873  0.02124477  0.02665725  0.00688287    743.32
  11  -232.21366041  -232.21366041    -0.00000000  0.00002653  0.00006386  0.00000952  0.00072632  0.00127463  0.00032911    806.24

 END OF GEOMETRY OPTIMIZATION.

 Geometry written to block  1 of record 700

 Recomputing wavefunction for reoriented structure

 Current geometry (xyz format, in Angstrom)

   15
 HF-SCF000/6-311G(D,P)  ENERGY=-232.21366041
 C         -0.0000220799       -0.3194887295        2.5714734175
 H         -0.8775709533       -0.9589668796        2.6178760644
 H         -0.0000933917        0.3092596830        3.4569723546
 H          0.8775903175       -0.9588734966        2.6179511212
 C         -0.0000123102        0.5219365150        1.2964796101
 H         -0.8715028365        1.1746714030        1.2978207024
 H          0.8714267540        1.1747392283        1.2978764884
 C          0.0000594101       -0.3257891754        0.0251064771
 H         -0.8725308017       -0.9744887414        0.0092656638
 H          0.8727358816       -0.9743714686        0.0092791292
 C          0.0000167140        0.5065896318       -1.2428539053
 H          0.8799035168        1.1497477984       -1.2639770402
 H         -0.8798623335        1.1497580941       -1.2639064628
 O         -0.0000324137       -0.3647031954       -2.3435842690
 H         -0.0000786440        0.1333559566       -3.1403295868

 **********************************************************************************************************************************


 **********************************************************************************************************************************
 DATASETS  * FILE   NREC   LENGTH (MB)   RECORD NAMES
              1      19      182.09       500      610      700      900      950      970     1000      129      960     1100   
                                          VAR    BASINP    GEOM    SYMINP    ZMAT    AOBASIS   BASIS     P2S    ABASIS      S 
                                         1400     1410     1200     1210     1080     1600     1650     1300     1700   
                                           T        V       H0       H01     AOSYM     SMH    MOLCAS    ERIS     OPER   

              2       4        0.94       700     1000      520     2100   
                                         GEOM     BASIS   MCVARS     RHF  

 PROGRAMS   *        TOTAL      OPTG    HF-SCF       INT
 CPU TIMES  *       910.60    854.12     50.10      6.22
 REAL TIME  *       317.49 SEC
 DISK USED  *       760.11 MB
 **********************************************************************************************************************************


 PROGRAM * HESSIAN

 PROGRAM * MCKINLEY (Hessian of the energy)     Author: A. Bernhardsson, R. Lindh

 Orbitals from record         2100.2

 Number of closed-shell orbitals: 21 ( 21 )
 Number of occupied orbitals:     21 ( 21 )

 Number of electrons= 42     Singlet     Space symmetry=1      Wavefunction type: CLOSED          


 McKinley needed   1037.26 seconds of CPU time

 Entering CPHF calculation

 CPHF needed 360 iterations for 45 perturbations.  Total CPU time: 1167.49 sec


 HF-SCF hessian saved to record  5300.2

 PROGRAM * FREQUENCIES (Calculation of harmonic vibrational spectra for HF-SCF)


 Permanent Dipole Moment [debye]
 1-3    0.000000    0.000000    0.000000

 Dipole Moment Norm    0.0000000 [debye]

 Dipole Moment Derivatives [debye/ang]
              1             2             3             4             5             6             7             8
    1    0.00000000    0.00000000    0.00000000    0.00000000    0.00000000    0.00000000    0.00000000    0.00000000
    2    0.00000000    0.00000000    0.00000000    0.00000000    0.00000000    0.00000000    0.00000000    0.00000000
    3    0.00000000    0.00000000    0.00000000    0.00000000    0.00000000    0.00000000    0.00000000    0.00000000
              9            10            11            12            13            14            15            16
    1    0.00000000    0.00000000    0.00000000    0.00000000    0.00000000    0.00000000    0.00000000    0.00000000
    2    0.00000000    0.00000000    0.00000000    0.00000000    0.00000000    0.00000000    0.00000000    0.00000000
    3    0.00000000    0.00000000    0.00000000    0.00000000    0.00000000    0.00000000    0.00000000    0.00000000
             17            18            19            20            21            22            23            24
    1    0.00000000    0.00000000    0.00000000    0.00000000    0.00000000    0.00000000    0.00000000    0.00000000
    2    0.00000000    0.00000000    0.00000000    0.00000000    0.00000000    0.00000000    0.00000000    0.00000000
    3    0.00000000    0.00000000    0.00000000    0.00000000    0.00000000    0.00000000    0.00000000    0.00000000
             25            26            27            28            29            30            31            32
    1    0.00000000    0.00000000    0.00000000    0.00000000    0.00000000    0.00000000    0.00000000    0.00000000
    2    0.00000000    0.00000000    0.00000000    0.00000000    0.00000000    0.00000000    0.00000000    0.00000000
    3    0.00000000    0.00000000    0.00000000    0.00000000    0.00000000    0.00000000    0.00000000    0.00000000
             33            34            35            36            37            38            39            40
    1    0.00000000    0.00000000    0.00000000    0.00000000    0.00000000    0.00000000    0.00000000    0.00000000
    2    0.00000000    0.00000000    0.00000000    0.00000000    0.00000000    0.00000000    0.00000000    0.00000000
    3    0.00000000    0.00000000    0.00000000    0.00000000    0.00000000    0.00000000    0.00000000    0.00000000
             41            42            43            44            45
    1    0.00000000    0.00000000    0.00000000    0.00000000    0.00000000
    2    0.00000000    0.00000000    0.00000000    0.00000000    0.00000000
    3    0.00000000    0.00000000    0.00000000    0.00000000    0.00000000

 Projecting out rotations and translations

 Force Constants (Second Derivatives of the Energy) in [a.u.]
                             CX1         CY1         CZ1         HX2         HY2     
           CX1           0.6251416
           CY1          -0.0000011   0.6006498
           CZ1           0.0000004   0.0460459   0.5673155
           HX2          -0.2389564  -0.1301878   0.0079217   0.2563744
           HY2          -0.1291008  -0.1500743   0.0051974   0.1450704   0.1599256
           HZ2           0.0058917   0.0036808  -0.0573418  -0.0072887  -0.0081865
           HX3          -0.0573095   0.0000107   0.0000149   0.0015033  -0.0176777
           HY3           0.0000108  -0.1537104  -0.1336813   0.0010720  -0.0125538
           HZ3           0.0000147  -0.1306289  -0.2376306  -0.0011880   0.0010750
           HX4          -0.2389832   0.1301787  -0.0079379  -0.0235724   0.0177968
           HY4           0.1290914  -0.1500470   0.0052076  -0.0178009   0.0151832
           HZ4          -0.0059078   0.0036914  -0.0573431   0.0003037  -0.0005673
           CX5          -0.0930313  -0.0000001   0.0000004   0.0012973  -0.0180715
           CY5           0.0000000  -0.1367558   0.0598751   0.0012314  -0.0123076
           CZ5           0.0000008   0.0628636  -0.1826950  -0.0004804  -0.0002456
           HX6           0.0013206  -0.0013121   0.0003666   0.0010072   0.0003654
           HY6           0.0178865  -0.0122503  -0.0000805  -0.0002860   0.0000602
           HZ6          -0.0279822   0.0197952  -0.0002485   0.0006689  -0.0007694
           HX7           0.0013200   0.0013119  -0.0003665   0.0017795   0.0005938
           HY7          -0.0178853  -0.0122517  -0.0000818   0.0003229  -0.0016839
           HZ7           0.0279806   0.0197976  -0.0002465  -0.0003800   0.0043421
           CX8           0.0002925  -0.0000003   0.0000001  -0.0000926   0.0002437
           CY8          -0.0000014   0.0178468   0.0189183  -0.0001163   0.0003421
           CZ8           0.0000019  -0.0191063  -0.0317148  -0.0001671  -0.0012862
           HX9          -0.0000445  -0.0000490   0.0000744   0.0003872   0.0003397
           HY9           0.0002902   0.0005325   0.0011370   0.0003286   0.0008008
           HZ9          -0.0009664  -0.0002926   0.0018716   0.0005304   0.0004735
           HX10         -0.0000444   0.0000490  -0.0000745  -0.0000273   0.0000763
           HY10         -0.0002904   0.0005324   0.0011368  -0.0000859   0.0000703
           HZ10          0.0009662  -0.0002923   0.0018716  -0.0000155   0.0000613
           CX11         -0.0010334   0.0000004   0.0000004   0.0003258   0.0001769
           CY11          0.0000005  -0.0056607  -0.0047878   0.0003160   0.0000769
           CZ11         -0.0000000  -0.0021806  -0.0017545   0.0000192  -0.0001729
           HX12          0.0003936   0.0004153   0.0002764  -0.0000099   0.0000981
           HY12          0.0003905   0.0002714   0.0001869   0.0000892   0.0001310
           HZ12         -0.0000380   0.0000462  -0.0000770  -0.0001931  -0.0001875
           HX13          0.0003937  -0.0004154  -0.0002764  -0.0000232   0.0000193
           HY13         -0.0003908   0.0002713   0.0001868   0.0000154  -0.0000594
           HZ13          0.0000380   0.0000462  -0.0000769   0.0000005   0.0000281
           OX14          0.0005140  -0.0000001  -0.0000001   0.0000198   0.0000943
           OY14         -0.0000001   0.0010015   0.0010786   0.0000194   0.0000969
           OZ14          0.0000001  -0.0029933  -0.0015691   0.0002483   0.0002510
           HX15          0.0000268  -0.0000000  -0.0000000  -0.0000127  -0.0000248
           HY15          0.0000001  -0.0003555  -0.0003389   0.0000118  -0.0000081
           HZ15          0.0000000  -0.0004730  -0.0003608   0.0000199  -0.0000130
                             HZ2         HX3         HY3         HZ3         HX4     
           HZ2           0.0586283
           HX3          -0.0257215   0.0539083
           HY3          -0.0163769  -0.0000120   0.1633771
           HZ3           0.0021851  -0.0000164   0.1443428   0.2587465
           HX4          -0.0003056   0.0014992  -0.0010691   0.0011878   0.2564045
           HY4          -0.0005689   0.0176791  -0.0125520   0.0010767  -0.1450598
           HZ4          -0.0007103   0.0257232  -0.0163743   0.0021875   0.0073066
           CX5           0.0276938  -0.0010028  -0.0000016   0.0000020   0.0012979
           CY5           0.0184327   0.0000000   0.0152299  -0.0211934  -0.0012317
           CZ5          -0.0001761  -0.0000002   0.0197112  -0.0225146   0.0004806
           HX6          -0.0005315   0.0000017  -0.0000226  -0.0008921   0.0017795
           HY6          -0.0008899  -0.0004126   0.0011086   0.0000331  -0.0003230
           HZ6           0.0014396  -0.0002347  -0.0011214   0.0011092   0.0003802
           HX7          -0.0000467   0.0000015   0.0000225   0.0008920   0.0010073
           HY7           0.0041619   0.0004125   0.0011086   0.0000333   0.0002862
           HZ7          -0.0057052   0.0002347  -0.0011214   0.0011092  -0.0006689
           CX8           0.0012205   0.0002622  -0.0000000  -0.0000002  -0.0000925
           CY8           0.0003746  -0.0000002  -0.0032969   0.0068055   0.0001163
           CZ8           0.0020935  -0.0000000   0.0032272  -0.0042982   0.0001670
           HX9          -0.0005256   0.0002755   0.0003306  -0.0001633  -0.0000274
           HY9          -0.0004555   0.0003515   0.0000846   0.0000990   0.0000859
           HZ9          -0.0004756   0.0003246   0.0001150   0.0003684   0.0000155
           HX10         -0.0000357   0.0002756  -0.0003306   0.0001633   0.0003873
           HY10         -0.0000783  -0.0003514   0.0000845   0.0000990  -0.0003286
           HZ10         -0.0000907  -0.0003247   0.0001149   0.0003683  -0.0005304
           CX11         -0.0000181   0.0006630  -0.0000001   0.0000002   0.0003258
           CY11          0.0003220   0.0000001   0.0012588  -0.0021370  -0.0003160
           CZ11          0.0000455  -0.0000000   0.0006043  -0.0001185  -0.0000191
           HX12         -0.0002203  -0.0000307  -0.0000461   0.0001536  -0.0000232
           HY12         -0.0002581   0.0000550   0.0000156   0.0001184  -0.0000154
           HZ12          0.0000920  -0.0000735  -0.0000708  -0.0000435  -0.0000005
           HX13          0.0000176  -0.0000306   0.0000461  -0.0001537  -0.0000099
           HY13          0.0000114  -0.0000550   0.0000156   0.0001183  -0.0000892
           HZ13          0.0000149   0.0000735  -0.0000708  -0.0000435   0.0001931
           OX14         -0.0001404  -0.0000149   0.0000000  -0.0000001   0.0000198
           OY14         -0.0001862  -0.0000000  -0.0002393   0.0003053  -0.0000194
           OZ14         -0.0000139   0.0000000   0.0005720  -0.0013344  -0.0002484
           HX15          0.0000106  -0.0000019   0.0000000   0.0000000  -0.0000127
           HY15          0.0000168   0.0000000   0.0000692  -0.0001472  -0.0000118
           HZ15          0.0000146   0.0000000   0.0001294  -0.0000909  -0.0000199
                             HY4         HZ4         CX5         CY5         CZ5     
           HY4           0.1598952
           HZ4          -0.0081983   0.0586292
           CX5           0.0180729  -0.0276956   0.6520687
           CY5          -0.0123060   0.0184299   0.0000028   0.5973214
           CZ5          -0.0002441  -0.0001781   0.0000048  -0.0032197   0.5288740
           HX6          -0.0005938   0.0000469  -0.2335611   0.1263166   0.0004321
           HY6          -0.0016840   0.0041619   0.1239295  -0.1512003  -0.0007075
           HZ6           0.0043422  -0.0057051   0.0004711  -0.0009276  -0.0578402
           HX7          -0.0003653   0.0005316  -0.2335420  -0.1263238  -0.0004433
           HY7           0.0000603  -0.0008899  -0.1239363  -0.1512199  -0.0007153
           HZ7          -0.0007695   0.0014397  -0.0004826  -0.0009359  -0.0578406
           CX8          -0.0002436  -0.0012205  -0.0952495   0.0000033   0.0000041
           CY8           0.0003420   0.0003744   0.0000034  -0.1412802  -0.0582062
           CZ8          -0.0012860   0.0020934   0.0000054  -0.0563002  -0.1779418
           HX9          -0.0000764   0.0000357   0.0010903   0.0011935   0.0003514
           HY9           0.0000703  -0.0000783  -0.0176911  -0.0124560  -0.0000232
           HZ9           0.0000613  -0.0000907  -0.0274171  -0.0186574  -0.0004130
           HX10         -0.0003397   0.0005257   0.0010874  -0.0011915  -0.0003515
           HY10          0.0008007  -0.0004554   0.0176926  -0.0124539  -0.0000225
           HZ10          0.0004734  -0.0004756   0.0274197  -0.0186538  -0.0004118
           CX11         -0.0001768   0.0000180  -0.0008871  -0.0000012   0.0000010
           CY11          0.0000768   0.0003220  -0.0000011   0.0197056  -0.0194451
           CZ11         -0.0001729   0.0000454  -0.0000004   0.0115589  -0.0261539
           HX12         -0.0000193  -0.0000175  -0.0003372  -0.0004871  -0.0000900
           HY12         -0.0000594   0.0000114  -0.0001943  -0.0002239  -0.0009374
           HZ12          0.0000281   0.0000149   0.0006714   0.0005696   0.0018514
           HX13         -0.0000981   0.0002204  -0.0003371   0.0004871   0.0000905
           HY13          0.0001309  -0.0002581   0.0001946  -0.0002235  -0.0009380
           HZ13         -0.0001874   0.0000919  -0.0006717   0.0005699   0.0018514
           OX14         -0.0000943   0.0001404   0.0002767   0.0000004  -0.0000000
           OY14          0.0000970  -0.0001862   0.0000003  -0.0030891   0.0034266
           OZ14          0.0002510  -0.0000139  -0.0000008   0.0086486  -0.0055955
           HX15          0.0000248  -0.0000106   0.0008297   0.0000001   0.0000000
           HY15         -0.0000081   0.0000168  -0.0000000   0.0012593  -0.0012969
           HZ15         -0.0000130   0.0000146  -0.0000002   0.0018033  -0.0008163
                             HX6         HY6         HZ6         HX7         HY7     
           HX6           0.2501595
           HY6          -0.1410571   0.1623026
           HZ6          -0.0003543   0.0003223   0.0650371
           HX7          -0.0246982  -0.0172802   0.0000140   0.2501380
           HY7           0.0172771   0.0150402  -0.0000782   0.1410643   0.1623250
           HZ7          -0.0000156  -0.0000794  -0.0003437   0.0003663   0.0003317
           CX8           0.0006531   0.0189772   0.0277623   0.0006565  -0.0189758
           CY8          -0.0008971  -0.0128336  -0.0186372   0.0008996  -0.0128352
           CZ8           0.0001641  -0.0000416   0.0001318  -0.0001640  -0.0000426
           HX9           0.0010444  -0.0003420  -0.0006718   0.0018406   0.0003642
           HY9           0.0002471   0.0001909   0.0007683   0.0002662  -0.0018239
           HZ9           0.0006207   0.0007986   0.0013689   0.0001522  -0.0041173
           HX10          0.0018406  -0.0003638  -0.0003918   0.0010445   0.0003420
           HY10         -0.0002656  -0.0018241  -0.0037273  -0.0002470   0.0001910
           HZ10         -0.0001514  -0.0041172  -0.0056404  -0.0006208   0.0007986
           CX11         -0.0005698   0.0003729   0.0015263  -0.0005695  -0.0003730
           CY11          0.0008323  -0.0003267  -0.0009710  -0.0008322  -0.0003268
           CZ11         -0.0004189   0.0010463   0.0012391   0.0004186   0.0010460
           HX12          0.0000579  -0.0001074  -0.0000889   0.0006574   0.0004908
           HY12          0.0000826   0.0000697   0.0000995   0.0004866   0.0009250
           HZ12         -0.0000146  -0.0000742  -0.0000606  -0.0004781  -0.0004160
           HX13          0.0006576  -0.0004909  -0.0005123   0.0000578   0.0001073
           HY13         -0.0004869   0.0009251   0.0003680  -0.0000826   0.0000697
           HZ13          0.0004782  -0.0004159  -0.0005966   0.0000146  -0.0000743
           OX14          0.0003951  -0.0005017  -0.0005476   0.0003949   0.0005017
           OY14         -0.0005326   0.0003705   0.0004318   0.0005324   0.0003706
           OZ14          0.0001581   0.0000790   0.0000981  -0.0001582   0.0000789
           HX15         -0.0000883  -0.0000013  -0.0000392  -0.0000883   0.0000013
           HY15          0.0000465   0.0000510   0.0001048  -0.0000465   0.0000510
           HZ15          0.0001116  -0.0000350   0.0000113  -0.0001116  -0.0000350
                             HZ7         CX8         CY8         CZ8         HX9     
           HZ7           0.0650363
           CX8          -0.0277609   0.6635697
           CY8          -0.0186397   0.0000029   0.6152990
           CZ8           0.0001308   0.0000016  -0.0031068   0.5498909
           HX9           0.0003925  -0.2384085  -0.1286895  -0.0022039   0.2542909
           HY9          -0.0037272  -0.1258807  -0.1514532  -0.0004474   0.1430076
           HZ9          -0.0056404  -0.0037654  -0.0022804  -0.0578562   0.0030277
           HX10          0.0006718  -0.2384436   0.1286795   0.0022009  -0.0240863
           HY10          0.0007684   0.1258697  -0.1514185  -0.0004457  -0.0174182
           HZ10          0.0013691   0.0037626  -0.0022782  -0.0578567  -0.0003033
           CX11         -0.0015260  -0.0964758   0.0000031  -0.0000036  -0.0002480
           CY11         -0.0009709   0.0000029  -0.1512853   0.0621415   0.0001994
           CZ11          0.0012391  -0.0000032   0.0831517  -0.1764402  -0.0013696
           HX12          0.0005123   0.0005350   0.0008129  -0.0006746   0.0018466
           HY12          0.0003679  -0.0195069  -0.0111307   0.0014540   0.0000078
           HZ12         -0.0005966   0.0278798   0.0177604  -0.0000293  -0.0002686
           HX13          0.0000889   0.0005329  -0.0008110   0.0006741   0.0013366
           HY13          0.0000996   0.0195074  -0.0111305   0.0014525  -0.0001368
           HZ13         -0.0000606  -0.0278798   0.0177597  -0.0000284   0.0007434
           OX14          0.0005476   0.0025397  -0.0000018  -0.0000017   0.0005764
           OY14          0.0004319   0.0000005   0.0166992   0.0173789   0.0009251
           OZ14          0.0000980  -0.0000011  -0.0353733  -0.0437534   0.0008055
           HX15          0.0000392  -0.0002790  -0.0000004   0.0000000   0.0001262
           HY15          0.0001048  -0.0000003  -0.0038649  -0.0035914   0.0003439
           HZ15          0.0000112   0.0000001  -0.0066229  -0.0044215   0.0000755
                             HY9         HZ9         HX10        HY10        HZ10    
           HY9           0.1639772
           HZ9           0.0012410   0.0629097
           HX10          0.0174131   0.0003028   0.2543301
           HY10          0.0145636   0.0002870  -0.1429962   0.1639398
           HZ10          0.0002873  -0.0000306  -0.0030249   0.0012376   0.0629088
           CX11         -0.0207111   0.0288207  -0.0002502   0.0207126  -0.0288234
           CY11         -0.0150682   0.0207240  -0.0001982  -0.0150665   0.0207210
           CZ11         -0.0007701  -0.0007136   0.0013702  -0.0007693  -0.0007135
           HX12          0.0002485  -0.0000810   0.0013370  -0.0003159   0.0005301
           HY12         -0.0019022   0.0037901   0.0001367   0.0003058  -0.0009119
           HZ12          0.0041347  -0.0058342  -0.0007434  -0.0008203   0.0013754
           HX13          0.0003159  -0.0005301   0.0018467  -0.0002479   0.0000804
           HY13          0.0003058  -0.0009119  -0.0000078  -0.0019024   0.0037901
           HZ13         -0.0008201   0.0013751   0.0002682   0.0041349  -0.0058341
           OX14          0.0015530  -0.0008742   0.0005765  -0.0015529   0.0008747
           OY14          0.0021662  -0.0012398  -0.0009250   0.0021656  -0.0012399
           OZ14         -0.0011415   0.0026993  -0.0008056  -0.0011408   0.0026989
           HX15          0.0001750  -0.0001605   0.0001262  -0.0001750   0.0001607
           HY15          0.0000118   0.0000089  -0.0003438   0.0000117   0.0000089
           HZ15         -0.0002042   0.0004613  -0.0000755  -0.0002041   0.0004612
                             CX11        CY11        CZ11        HX12        HY12    
           CX11          0.6608672
           CY11         -0.0000036   0.6266772
           CZ11         -0.0000033  -0.0163403   0.5681411
           HX12         -0.2422769  -0.1184540   0.0118008   0.2537062
           HY12         -0.1133838  -0.1417379   0.0097124   0.1350115   0.1600550
           HZ12          0.0129023   0.0124656  -0.0632504  -0.0084111  -0.0002381
           HX13         -0.2422776   0.1184574  -0.0117862  -0.0255916   0.0164183
           HY13          0.1133875  -0.1417422   0.0097037  -0.0164178   0.0144052
           HZ13         -0.0128876   0.0124561  -0.0632479   0.0026658  -0.0002570
           OX14         -0.0769121  -0.0000045  -0.0000069   0.0099492  -0.0200812
           OY14         -0.0000018  -0.1939433  -0.0633631  -0.0005646  -0.0214495
           OZ14         -0.0000054  -0.1083311  -0.2093205  -0.0055958  -0.0139488
           HX15         -0.0006813   0.0000010  -0.0000011  -0.0002136   0.0005033
           HY15         -0.0000020   0.0173623  -0.0330539  -0.0006649   0.0003249
           HZ15         -0.0000017   0.0238310  -0.0289971  -0.0007600   0.0008106
                             HZ12        HX13        HY13        HZ13        OX14    
           HZ12          0.0715718
           HX13         -0.0026636   0.2537059
           HY13         -0.0002556  -0.1350144   0.1600591
           HZ13          0.0033796   0.0083967  -0.0002271   0.0715711
           OX14         -0.0275920   0.0099521   0.0200797   0.0275899   0.0543473
           OY14         -0.0326160   0.0005614  -0.0214497  -0.0326165  -0.0000098
           OZ14         -0.0103540   0.0055937  -0.0139504  -0.0103567   0.0000358
           HX15         -0.0009771  -0.0002133  -0.0005033   0.0009773  -0.0026343
           HY15         -0.0003259   0.0006648   0.0003250  -0.0003260   0.0000173
           HZ15          0.0019606   0.0007602   0.0008107   0.0019606  -0.0000255
                             OY14        OZ14        HX15        HY15        HZ15    
           OY14          0.4465880
           OZ14         -0.1237685   0.7238225
           HX15          0.0000143  -0.0000264   0.0031166
           HY15         -0.2293844   0.2907671  -0.0000151   0.2141548
           HZ15          0.2321632  -0.4471055   0.0000271  -0.2519479   0.4768967


 Atomic Masses
 1-10   12.000000    1.007825    1.007825    1.007825   12.000000    1.007825    1.007825   12.000000    1.007825    1.007825
 11-15   12.000000    1.007825    1.007825   15.994910    1.007825

 Mass weighted Second Derivative Matrix
                             CX1         CY1         CZ1         HX2         HY2     
           CX1           0.0520951
           CY1          -0.0000001   0.0500542
           CZ1           0.0000000   0.0038372   0.0472763
           HX2          -0.0687125  -0.0374358   0.0022779   0.2543839
           HY2          -0.0371232  -0.0431542   0.0014945   0.1439440   0.1586839
           HZ2           0.0016942   0.0010584  -0.0164888  -0.0072321  -0.0081229
           HX3          -0.0164795   0.0000031   0.0000043   0.0014916  -0.0175404
           HY3           0.0000031  -0.0441998  -0.0384404   0.0010637  -0.0124563
           HZ3           0.0000042  -0.0375626  -0.0683312  -0.0011788   0.0010667
           HX4          -0.0687202   0.0374332  -0.0022826  -0.0233894   0.0176586
           HY4           0.0371205  -0.0431463   0.0014974  -0.0176627   0.0150653
           HZ4          -0.0016988   0.0010615  -0.0164891   0.0003013  -0.0005629
           CX5          -0.0077526  -0.0000000   0.0000000   0.0003730  -0.0051965
           CY5           0.0000000  -0.0113963   0.0049896   0.0003541  -0.0035391
           CZ5           0.0000001   0.0052386  -0.0152246  -0.0001381  -0.0000706
           HX6           0.0003798  -0.0003773   0.0001054   0.0009994   0.0003626
           HY6           0.0051433  -0.0035226  -0.0000231  -0.0002838   0.0000598
           HZ6          -0.0080463   0.0056922  -0.0000715   0.0006637  -0.0007634
           HX7           0.0003796   0.0003772  -0.0001054   0.0017657   0.0005892
           HY7          -0.0051430  -0.0035230  -0.0000235   0.0003204  -0.0016708
           HZ7           0.0080459   0.0056928  -0.0000709  -0.0003770   0.0043084
           CX8           0.0000244  -0.0000000   0.0000000  -0.0000266   0.0000701
           CY8          -0.0000001   0.0014872   0.0015765  -0.0000334   0.0000984
           CZ8           0.0000002  -0.0015922  -0.0026429  -0.0000480  -0.0003699
           HX9          -0.0000128  -0.0000141   0.0000214   0.0003842   0.0003371
           HY9           0.0000834   0.0001531   0.0003270   0.0003261   0.0007946
           HZ9          -0.0002779  -0.0000841   0.0005382   0.0005263   0.0004698
           HX10         -0.0000128   0.0000141  -0.0000214  -0.0000271   0.0000757
           HY10         -0.0000835   0.0001531   0.0003269  -0.0000853   0.0000697
           HZ10          0.0002778  -0.0000840   0.0005382  -0.0000154   0.0000608
           CX11         -0.0000861   0.0000000   0.0000000   0.0000937   0.0000509
           CY11          0.0000000  -0.0004717  -0.0003990   0.0000909   0.0000221
           CZ11         -0.0000000  -0.0001817  -0.0001462   0.0000055  -0.0000497
           HX12          0.0001132   0.0001194   0.0000795  -0.0000098   0.0000973
           HY12          0.0001123   0.0000780   0.0000537   0.0000885   0.0001299
           HZ12         -0.0000109   0.0000133  -0.0000221  -0.0001916  -0.0001860
           HX13          0.0001132  -0.0001194  -0.0000795  -0.0000230   0.0000192
           HY13         -0.0001124   0.0000780   0.0000537   0.0000152  -0.0000589
           HZ13          0.0000109   0.0000133  -0.0000221   0.0000005   0.0000278
           OX14          0.0000371  -0.0000000  -0.0000000   0.0000049   0.0000235
           OY14         -0.0000000   0.0000723   0.0000779   0.0000048   0.0000241
           OZ14          0.0000000  -0.0002161  -0.0001133   0.0000619   0.0000625
           HX15          0.0000077  -0.0000000  -0.0000000  -0.0000126  -0.0000246
           HY15          0.0000000  -0.0001022  -0.0000975   0.0000117  -0.0000080
           HZ15          0.0000000  -0.0001360  -0.0001037   0.0000198  -0.0000129
                             HZ2         HX3         HY3         HZ3         HX4     
           HZ2           0.0581731
           HX3          -0.0255218   0.0534898
           HY3          -0.0162497  -0.0000119   0.1621086
           HZ3           0.0021682  -0.0000163   0.1432221   0.2567375
           HX4          -0.0003032   0.0014875  -0.0010608   0.0011786   0.2544137
           HY4          -0.0005645   0.0175418  -0.0124546   0.0010683  -0.1439336
           HZ4          -0.0007048   0.0255235  -0.0162471   0.0021705   0.0072498
           CX5           0.0079634  -0.0002883  -0.0000005   0.0000006   0.0003732
           CY5           0.0053004   0.0000000   0.0043794  -0.0060942  -0.0003542
           CZ5          -0.0000506  -0.0000000   0.0056680  -0.0064741   0.0001382
           HX6          -0.0005274   0.0000017  -0.0000224  -0.0008852   0.0017657
           HY6          -0.0008830  -0.0004094   0.0011000   0.0000329  -0.0003205
           HZ6           0.0014285  -0.0002329  -0.0011127   0.0011006   0.0003772
           HX7          -0.0000464   0.0000015   0.0000223   0.0008851   0.0009995
           HY7           0.0041296   0.0004093   0.0011000   0.0000330   0.0002840
           HZ7          -0.0056609   0.0002329  -0.0011127   0.0011006  -0.0006637
           CX8           0.0003510   0.0000754  -0.0000000  -0.0000001  -0.0000266
           CY8           0.0001077  -0.0000000  -0.0009480   0.0019569   0.0000334
           CZ8           0.0006020  -0.0000000   0.0009280  -0.0012360   0.0000480
           HX9          -0.0005215   0.0002734   0.0003280  -0.0001620  -0.0000271
           HY9          -0.0004519   0.0003487   0.0000840   0.0000983   0.0000853
           HZ9          -0.0004719   0.0003221   0.0001141   0.0003655   0.0000154
           HX10         -0.0000354   0.0002735  -0.0003280   0.0001620   0.0003843
           HY10         -0.0000777  -0.0003487   0.0000839   0.0000982  -0.0003260
           HZ10         -0.0000900  -0.0003222   0.0001140   0.0003654  -0.0005263
           CX11         -0.0000052   0.0001907  -0.0000000   0.0000001   0.0000937
           CY11          0.0000926   0.0000000   0.0003620  -0.0006145  -0.0000909
           CZ11          0.0000131  -0.0000000   0.0001738  -0.0000341  -0.0000055
           HX12         -0.0002186  -0.0000304  -0.0000458   0.0001524  -0.0000230
           HY12         -0.0002561   0.0000546   0.0000155   0.0001174  -0.0000152
           HZ12          0.0000912  -0.0000729  -0.0000703  -0.0000432  -0.0000005
           HX13          0.0000174  -0.0000304   0.0000458  -0.0001525  -0.0000098
           HY13          0.0000114  -0.0000546   0.0000155   0.0001174  -0.0000885
           HZ13          0.0000148   0.0000729  -0.0000703  -0.0000432   0.0001916
           OX14         -0.0000350  -0.0000037   0.0000000  -0.0000000   0.0000049
           OY14         -0.0000464  -0.0000000  -0.0000596   0.0000760  -0.0000048
           OZ14         -0.0000035   0.0000000   0.0001425  -0.0003323  -0.0000619
           HX15          0.0000105  -0.0000019   0.0000000   0.0000000  -0.0000126
           HY15          0.0000166   0.0000000   0.0000686  -0.0001461  -0.0000117
           HZ15          0.0000145   0.0000000   0.0001284  -0.0000902  -0.0000198
                             HY4         HZ4         CX5         CY5         CZ5     
           HY4           0.1586537
           HZ4          -0.0081347   0.0581740
           CX5           0.0051969  -0.0079639   0.0543391
           CY5          -0.0035386   0.0052996   0.0000002   0.0497768
           CZ5          -0.0000702  -0.0000512   0.0000004  -0.0002683   0.0440728
           HX6          -0.0005892   0.0000466  -0.0671610   0.0363226   0.0001243
           HY6          -0.0016709   0.0041295   0.0356362  -0.0434780  -0.0002034
           HZ6           0.0043085  -0.0056608   0.0001355  -0.0002667  -0.0166321
           HX7          -0.0003624   0.0005274  -0.0671555  -0.0363247  -0.0001275
           HY7           0.0000598  -0.0008830  -0.0356382  -0.0434836  -0.0002057
           HZ7          -0.0007635   0.0014285  -0.0001388  -0.0002691  -0.0166322
           CX8          -0.0000701  -0.0003510  -0.0079375   0.0000003   0.0000003
           CY8           0.0000983   0.0001077   0.0000003  -0.0117734  -0.0048505
           CZ8          -0.0003698   0.0006020   0.0000004  -0.0046917  -0.0148285
           HX9          -0.0000758   0.0000354   0.0003135   0.0003432   0.0001010
           HY9           0.0000697  -0.0000777  -0.0050871  -0.0035818  -0.0000067
           HZ9           0.0000609  -0.0000900  -0.0078839  -0.0053650  -0.0001188
           HX10         -0.0003371   0.0005216   0.0003127  -0.0003426  -0.0001011
           HY10          0.0007945  -0.0004519   0.0050876  -0.0035811  -0.0000065
           HZ10          0.0004698  -0.0004719   0.0078846  -0.0053639  -0.0001184
           CX11         -0.0000508   0.0000052  -0.0000739  -0.0000001   0.0000001
           CY11          0.0000221   0.0000926  -0.0000001   0.0016421  -0.0016204
           CZ11         -0.0000497   0.0000131  -0.0000000   0.0009632  -0.0021795
           HX12         -0.0000192  -0.0000174  -0.0000970  -0.0001401  -0.0000259
           HY12         -0.0000589   0.0000114  -0.0000559  -0.0000644  -0.0002695
           HZ12          0.0000278   0.0000147   0.0001931   0.0001638   0.0005324
           HX13         -0.0000974   0.0002186  -0.0000969   0.0001401   0.0000260
           HY13          0.0001299  -0.0002561   0.0000560  -0.0000643  -0.0002697
           HZ13         -0.0001860   0.0000912  -0.0001932   0.0001639   0.0005324
           OX14         -0.0000235   0.0000350   0.0000200   0.0000000  -0.0000000
           OY14          0.0000241  -0.0000464   0.0000000  -0.0002230   0.0002473
           OZ14          0.0000625  -0.0000035  -0.0000001   0.0006243  -0.0004039
           HX15          0.0000246  -0.0000105   0.0002386   0.0000000   0.0000000
           HY15         -0.0000080   0.0000167  -0.0000000   0.0003621  -0.0003729
           HZ15         -0.0000129   0.0000145  -0.0000001   0.0005185  -0.0002347
                             HX6         HY6         HZ6         HX7         HY7     
           HX6           0.2482172
           HY6          -0.1399619   0.1610424
           HZ6          -0.0003515   0.0003198   0.0645321
           HX7          -0.0245065  -0.0171460   0.0000139   0.2481959
           HY7           0.0171430   0.0149234  -0.0000776   0.1399691   0.1610647
           HZ7          -0.0000155  -0.0000788  -0.0003410   0.0003635   0.0003291
           CX8           0.0001878   0.0054569   0.0079831   0.0001888  -0.0054565
           CY8          -0.0002580  -0.0036903  -0.0053592   0.0002587  -0.0036908
           CZ8           0.0000472  -0.0000120   0.0000379  -0.0000472  -0.0000122
           HX9           0.0010363  -0.0003393  -0.0006666   0.0018263   0.0003614
           HY9           0.0002452   0.0001894   0.0007623   0.0002642  -0.0018098
           HZ9           0.0006159   0.0007924   0.0013583   0.0001510  -0.0040853
           HX10          0.0018263  -0.0003610  -0.0003888   0.0010364   0.0003394
           HY10         -0.0002635  -0.0018099  -0.0036983  -0.0002451   0.0001895
           HZ10         -0.0001502  -0.0040853  -0.0055966  -0.0006160   0.0007924
           CX11         -0.0001638   0.0001072   0.0004389  -0.0001638  -0.0001073
           CY11          0.0002393  -0.0000939  -0.0002792  -0.0002393  -0.0000940
           CZ11         -0.0001205   0.0003009   0.0003563   0.0001204   0.0003008
           HX12          0.0000575  -0.0001066  -0.0000882   0.0006523   0.0004870
           HY12          0.0000819   0.0000692   0.0000988   0.0004829   0.0009178
           HZ12         -0.0000145  -0.0000736  -0.0000601  -0.0004744  -0.0004128
           HX13          0.0006525  -0.0004871  -0.0005083   0.0000574   0.0001065
           HY13         -0.0004831   0.0009180   0.0003651  -0.0000819   0.0000692
           HZ13          0.0004745  -0.0004127  -0.0005920   0.0000144  -0.0000737
           OX14          0.0000984  -0.0001249  -0.0001364   0.0000983   0.0001249
           OY14         -0.0001327   0.0000923   0.0001075   0.0001326   0.0000923
           OZ14          0.0000394   0.0000197   0.0000244  -0.0000394   0.0000196
           HX15         -0.0000877  -0.0000013  -0.0000389  -0.0000877   0.0000013
           HY15          0.0000461   0.0000506   0.0001040  -0.0000461   0.0000506
           HZ15          0.0001108  -0.0000347   0.0000112  -0.0001108  -0.0000347
                             HZ7         CX8         CY8         CZ8         HX9     
           HZ7           0.0645314
           CX8          -0.0079827   0.0552975
           CY8          -0.0053599   0.0000002   0.0512749
           CZ8           0.0000376   0.0000001  -0.0002589   0.0458242
           HX9           0.0003895  -0.0685549  -0.0370050  -0.0006337   0.2523165
           HY9          -0.0036982  -0.0361973  -0.0435507  -0.0001286   0.1418973
           HZ9          -0.0055966  -0.0010827  -0.0006557  -0.0166367   0.0030042
           HX10          0.0006665  -0.0685650   0.0370021   0.0006329  -0.0238993
           HY10          0.0007624   0.0361941  -0.0435407  -0.0001282  -0.0172830
           HZ10          0.0013585   0.0010820  -0.0006551  -0.0166368  -0.0003009
           CX11         -0.0004388  -0.0080397   0.0000003  -0.0000003  -0.0000713
           CY11         -0.0002792   0.0000002  -0.0126071   0.0051785   0.0000573
           CZ11          0.0003563  -0.0000003   0.0069293  -0.0147033  -0.0003938
           HX12          0.0005084   0.0001538   0.0002338  -0.0001940   0.0018323
           HY12          0.0003651  -0.0056092  -0.0032007   0.0004181   0.0000078
           HZ12         -0.0005920   0.0080169   0.0051070  -0.0000084  -0.0002665
           HX13          0.0000882   0.0001532  -0.0002332   0.0001938   0.0013263
           HY13          0.0000988   0.0056094  -0.0032006   0.0004177  -0.0001357
           HZ13         -0.0000601  -0.0080169   0.0051069  -0.0000082   0.0007377
           OX14          0.0001364   0.0001833  -0.0000001  -0.0000001   0.0001436
           OY14          0.0001076   0.0000000   0.0012054   0.0012544   0.0002304
           OZ14          0.0000244  -0.0000001  -0.0025533  -0.0031581   0.0002006
           HX15          0.0000389  -0.0000802  -0.0000001   0.0000000   0.0001252
           HY15          0.0001040  -0.0000001  -0.0011114  -0.0010327   0.0003413
           HZ15          0.0000112   0.0000000  -0.0019044  -0.0012714   0.0000749
                             HY9         HZ9         HX10        HY10        HZ10    
           HY9           0.1627040
           HZ9           0.0012313   0.0624212
           HX10          0.0172779   0.0003005   0.2523554
           HY10          0.0144505   0.0002848  -0.1418859   0.1626669
           HZ10          0.0002851  -0.0000304  -0.0030015   0.0012280   0.0624204
           CX11         -0.0059555   0.0082875  -0.0000720   0.0059560  -0.0082882
           CY11         -0.0043329   0.0059592  -0.0000570  -0.0043324   0.0059584
           CZ11         -0.0002214  -0.0002052   0.0003940  -0.0002212  -0.0002052
           HX12          0.0002466  -0.0000803   0.0013266  -0.0003134   0.0005260
           HY12         -0.0018875   0.0037607   0.0001357   0.0003035  -0.0009049
           HZ12          0.0041026  -0.0057889  -0.0007376  -0.0008140   0.0013648
           HX13          0.0003135  -0.0005260   0.0018323  -0.0002460   0.0000798
           HY13          0.0003034  -0.0009048  -0.0000077  -0.0018876   0.0037607
           HZ13         -0.0008137   0.0013645   0.0002662   0.0041028  -0.0057888
           OX14          0.0003868  -0.0002177   0.0001436  -0.0003868   0.0002179
           OY14          0.0005395  -0.0003088  -0.0002304   0.0005394  -0.0003088
           OZ14         -0.0002843   0.0006723  -0.0002007  -0.0002841   0.0006722
           HX15          0.0001737  -0.0001593   0.0001252  -0.0001736   0.0001594
           HY15          0.0000117   0.0000089  -0.0003412   0.0000117   0.0000088
           HZ15         -0.0002026   0.0004577  -0.0000749  -0.0002025   0.0004576
                             CX11        CY11        CZ11        HX12        HY12    
           CX11          0.0550723
           CY11         -0.0000003   0.0522231
           CZ11         -0.0000003  -0.0013617   0.0473451
           HX12         -0.0696673  -0.0340617   0.0033934   0.2517364
           HY12         -0.0326038  -0.0407570   0.0027928   0.1339632   0.1588123
           HZ12          0.0037101   0.0035845  -0.0181878  -0.0083458  -0.0002363
           HX13         -0.0696675   0.0340627  -0.0033892  -0.0253929   0.0162908
           HY13          0.0326048  -0.0407583   0.0027903  -0.0162904   0.0142933
           HZ13         -0.0037059   0.0035818  -0.0181871   0.0026451  -0.0002550
           OX14         -0.0055515  -0.0000003  -0.0000005   0.0024780  -0.0050016
           OY14         -0.0000001  -0.0139989  -0.0045736  -0.0001406  -0.0053424
           OZ14         -0.0000004  -0.0078194  -0.0151088  -0.0013937  -0.0034742
           HX15         -0.0001959   0.0000003  -0.0000003  -0.0002119   0.0004994
           HY15         -0.0000006   0.0049926  -0.0095047  -0.0006597   0.0003224
           HZ15         -0.0000005   0.0068527  -0.0083382  -0.0007541   0.0008043
                             HZ12        HX13        HY13        HZ13        OX14    
           HZ12          0.0710161
           HX13         -0.0026429   0.2517361
           HY13         -0.0002537  -0.1339661   0.1588164
           HZ13          0.0033534   0.0083315  -0.0002253   0.0710154
           OX14         -0.0068723   0.0024787   0.0050012   0.0068718   0.0033978
           OY14         -0.0081236   0.0001398  -0.0053424  -0.0081237  -0.0000006
           OZ14         -0.0025789   0.0013932  -0.0034746  -0.0025795   0.0000022
           HX15         -0.0009695  -0.0002117  -0.0004993   0.0009697  -0.0006561
           HY15         -0.0003234   0.0006597   0.0003225  -0.0003234   0.0000043
           HZ15          0.0019454   0.0007543   0.0008044   0.0019454  -0.0000064
                             OY14        OZ14        HX15        HY15        HZ15    
           OY14          0.0279206
           OZ14         -0.0077380   0.0452533
           HX15          0.0000036  -0.0000066   0.0030924
           HY15         -0.0571321   0.0724205  -0.0000150   0.2124920
           HZ15          0.0578242  -0.1113593   0.0000269  -0.2499917   0.4731940


 Mass Weighted 2nd Derivative Matrix Eigenvalues
 1-10    0.000000    0.000000    0.000000    0.000000    0.000000    0.000000    0.000501    0.000613    0.001506    0.002655
 11-20    0.003319    0.006665    0.008420    0.024006    0.029062    0.035406    0.039778    0.042946    0.048023    0.052643
 21-30    0.054690    0.063183    0.068606    0.069661    0.077102    0.077498    0.077510    0.087257    0.089758    0.096778
 31-40    0.098016    0.098687    0.099059    0.100379    0.103667    0.370068    0.374575    0.375711    0.376953    0.379106
 41-45    0.379628    0.388740    0.392063    0.392597    0.663583

 Mass Weighted 2nd Derivative Matrix Eigenvectors
              1             2             3             4             5             6             7             8
    1    0.00000000    0.00000000    0.72113626    0.00000000    0.00000000    0.00000000   -0.32578657   -0.21656486
    2    0.05073718    0.59586451   -0.00000443    0.03052137   -0.27639399    0.14978572   -0.00003695   -0.00002144
    3    0.38704567    0.05178663    0.00000371   -0.10519950    0.05023300    0.02202814   -0.00002911   -0.00002074
    4    0.00112358    0.02606331    0.24845422   -0.01039311   -0.00695607   -0.11479258   -0.21897334    0.00836305
    5    0.01319380    0.13802833   -0.05105902    0.02104795   -0.07312239    0.20249653    0.16859179   -0.10497794
    6    0.11260673    0.03032928    0.04275958   -0.05887014   -0.02083881    0.02787768   -0.03525176   -0.10158596
    7    0.00189717   -0.04224223    0.21555089    0.00183443   -0.02237079    0.12576030   -0.00925566   -0.24040894
    8    0.01139526    0.21558079   -0.00000543   -0.01951445   -0.09099260    0.05635710   -0.00001211   -0.00001841
    9    0.11451610   -0.01545512    0.00000455   -0.01035017    0.02229039   -0.00280039   -0.00000059   -0.00001161
   10    0.00112368    0.02605804    0.24845245   -0.01039233   -0.00695762   -0.11477468   -0.21895871    0.00834330
   11    0.01586679    0.21184013    0.05106015   -0.00633338   -0.08822006   -0.11433462   -0.16862728    0.10497286
   12    0.10694851    0.06164625   -0.04276052   -0.04306279    0.03422328    0.00357155    0.03521549    0.10157620
   13   -0.01860610   -0.04358466    0.33784071    0.08490669    0.16299059    0.46319132    0.38035872   -0.07751407
   14    0.06717465    0.38271665   -0.00000247    0.17142880   -0.22227046    0.08550834    0.00002808    0.00000047
   15    0.39789334   -0.08887947    0.00000207   -0.01220776    0.08595278   -0.02038781    0.00001814   -0.00000558
   16   -0.00638194   -0.04010372    0.05999482    0.03477616    0.05280739    0.25208069    0.19048201   -0.08448703
   17    0.01813500    0.07432919   -0.05070597    0.06323198   -0.05693501    0.18211688    0.10812269   -0.08310010
   18    0.12055882   -0.07293339    0.04246391    0.00952059    0.00559997   -0.00337598   -0.05738632   -0.07566264
   19   -0.00638186   -0.04010757    0.05999359    0.03477671    0.05280622    0.25209371    0.19048680   -0.08449863
   20    0.02078943    0.14762569    0.05070154    0.03604207   -0.07192724   -0.13250655   -0.10810051    0.08309559
   21    0.11493994   -0.04183345   -0.04246020    0.02521698    0.06027803   -0.02751236    0.05741423    0.07566027
   22   -0.02829440    0.15771370    0.29427655    0.07877953    0.27545518   -0.12559727    0.31625522    0.51390554
   23    0.08356577    0.17018308    0.00001193    0.31193274   -0.16830246    0.02137489    0.00005029    0.00003522
   24    0.38696353    0.05284494   -0.00000999   -0.10589327    0.04997436    0.02234185   -0.00000323    0.00000307
   25   -0.00726283    0.07326765    0.12225298    0.01285401    0.07474482   -0.15371749    0.15545971    0.21829881
   26    0.02294771    0.01185778   -0.05076578    0.10451782   -0.04107413    0.16347836   -0.08797663   -0.09175575
   27    0.11253249    0.03117123    0.04251399   -0.05932189   -0.02087165    0.02803464    0.07126973   -0.04202067
   28   -0.00726296    0.07326248    0.12224681    0.01285572    0.07474540   -0.15369613    0.15544927    0.21828575
   29    0.02560585    0.08525051    0.05077771    0.07729281   -0.05608593   -0.15156757    0.08801442    0.09178548
   30    0.10690626    0.06231047   -0.04252399   -0.04360287    0.03388033    0.00386518   -0.07127793    0.04202922
   31   -0.04677471    0.11500863   -0.08602024    0.16298074    0.43741592    0.33229521   -0.36048929    0.30053156
   32    0.09991229   -0.04179657    0.00000336    0.45206568   -0.11447594   -0.04251526    0.00001157    0.00000812
   33    0.39769517   -0.08631204   -0.00000281   -0.01390294    0.08530444   -0.01961558   -0.00000320   -0.00001484
   34   -0.01460311    0.00666059   -0.06337846    0.05745509    0.13295885    0.21210688   -0.22747514    0.13921923
   35    0.03037388    0.02386494    0.05119474    0.11796080   -0.04048375   -0.17146202    0.16747312   -0.07444262
   36    0.11481924   -0.04047139   -0.04287323    0.02449289    0.06023650   -0.02726465   -0.03260867   -0.10257537
   37   -0.01460290    0.00665890   -0.06337562    0.05745462    0.13295672    0.21210971   -0.22747525    0.13922882
   38    0.02769334   -0.05013344   -0.05119234    0.14540930   -0.02534826    0.14620245   -0.16746649    0.07444649
   39    0.12049269   -0.07187556    0.04287122    0.00864740    0.00503123   -0.00289627    0.03260152    0.10255078
   40   -0.06285283    0.35699847   -0.11102123    0.17350422    0.61271259   -0.30366018    0.07884405   -0.49797073
   41    0.13173362   -0.26071321   -0.00000751    0.66236627   -0.07821642   -0.11310973   -0.00004463   -0.00001873
   42    0.44617790    0.06851458    0.00000629   -0.12722403    0.05577761    0.02806383    0.00001964    0.00004083
   43   -0.01910434    0.08288618   -0.09566766    0.05849593    0.18307933    0.00265033   -0.13951209   -0.13408699
   44    0.03604398   -0.10404605   -0.00000458    0.19178348   -0.00983148   -0.04002342   -0.00002406   -0.00000819
   45    0.11385884   -0.00693263    0.00000383   -0.01598388    0.02012685   -0.00023087    0.00000613    0.00000853
              9            10            11            12            13            14            15            16
    1    0.00004045    0.04898869   -0.00777574   -0.00000978   -0.00000447   -0.03835290   -0.10677261   -0.00001026
    2   -0.35178558    0.00001678    0.00001154   -0.04167353    0.08459395    0.00000182   -0.00000506    0.03664347
    3   -0.23165604    0.00000559    0.00001158    0.53900356   -0.00299010   -0.00000861    0.00000743    0.38540065
    4    0.00100260   -0.21200453    0.00522047   -0.00297897   -0.00262080    0.10356063    0.10763283    0.02825648
    5   -0.11049692    0.33184799   -0.01184764   -0.00194289    0.03491492   -0.14406423   -0.17047151   -0.05311642
    6   -0.16648693    0.29228103   -0.02406574    0.23909897    0.09820412    0.15354417    0.22653733   -0.17425339
    7    0.00004155    0.54784678   -0.03522692    0.00000150    0.00000340    0.07922698    0.13920413   -0.00000359
    8   -0.23821549    0.00003583    0.00001011    0.09813506    0.15971838    0.00000511   -0.00000315   -0.38893042
    9    0.02912957    0.00002257   -0.00000405    0.07964375   -0.09600382    0.00000141    0.00001706    0.39467175
   10   -0.00098841   -0.21194427    0.00521738    0.00296092    0.00260581    0.10355832    0.10763311   -0.02824555
   11   -0.11052518   -0.33186232    0.01185633   -0.00194880    0.03491074    0.14407699    0.17048030   -0.05313726
   12   -0.16651999   -0.29229525    0.02408576    0.23909091    0.09819254   -0.15354009   -0.22653709   -0.17423411
   13   -0.00003326   -0.27438805    0.05860896    0.00000546    0.00000841   -0.20787408   -0.17754979   -0.00001401
   14    0.23486184   -0.00001749   -0.00001648   -0.20298564   -0.35653442   -0.00001796    0.00000994    0.34460931
   15    0.14509253   -0.00001430   -0.00000646    0.28203754   -0.25584159   -0.00001314    0.00000155    0.00133915
   16   -0.00288598   -0.14559765    0.02220286    0.00516720    0.00510395    0.24165182    0.09733372   -0.00036939
   17    0.06384341   -0.08861602    0.00644827   -0.05084530   -0.09475826    0.39823628    0.19486884    0.09998623
   18    0.10716491   -0.00051688   -0.00666219    0.12056744   -0.09249791    0.02912281   -0.15614318   -0.14862377
   19    0.00286594   -0.14560464    0.02220232   -0.00516364   -0.00510448    0.24168430    0.09733923    0.00036947
   20    0.06383932    0.08860093   -0.00645664   -0.05085078   -0.09475059   -0.39822218   -0.19485222    0.09998842
   21    0.10715360    0.00049893    0.00665425    0.12056805   -0.09250137   -0.02911379    0.15615739   -0.14864699
   22   -0.00006785    0.14765985    0.06620190   -0.00000005   -0.00001013   -0.14389315    0.21455040    0.00001153
   23    0.45182614   -0.00001434   -0.00001092    0.20439950   -0.02393024   -0.00000997    0.00000182   -0.36083046
   24    0.01958042    0.00000684   -0.00000982   -0.14975631   -0.31776614   -0.00000012   -0.00000904   -0.25557914
   25    0.00427241    0.10512578    0.04674422    0.00512521   -0.00077538    0.21371389   -0.15559597   -0.00464439
   26    0.12509489   -0.08298638   -0.03846129    0.05242414   -0.00211471   -0.33708813    0.29138167   -0.09709481
   27    0.00793050   -0.04454301    0.02611691   -0.08756371   -0.20079148   -0.08564260   -0.14650772   -0.14223781
   28   -0.00433572    0.10511468    0.04673973   -0.00511875    0.00075167    0.21366710   -0.15555810    0.00467049
   29    0.12506044    0.08298703    0.03845885    0.05242984   -0.00214084    0.33711588   -0.29140756   -0.09706910
   30    0.00794340    0.04455526   -0.02613032   -0.08755977   -0.20078272    0.08565168    0.14650234   -0.14223936
   31    0.00003384    0.10047797   -0.13967925    0.00000854   -0.00000052   -0.01001219    0.16167159   -0.00000015
   32    0.16633751   -0.00001046    0.00000204    0.14468361    0.37246604    0.00000294    0.00000047    0.09643913
   33   -0.14994926    0.00000698    0.00000611   -0.37426619    0.04983571   -0.00000009   -0.00000331   -0.07798898
   34    0.00169217    0.04170373   -0.04496950    0.00074888    0.00494947    0.07988762   -0.16125459    0.00279106
   35    0.04339220   -0.01767707    0.00533878    0.03792674    0.10149679   -0.10940901    0.27591023    0.02527422
   36   -0.11663200   -0.01896549   -0.01101805   -0.15583339   -0.00558992    0.07733733   -0.18347835    0.00669795
   37   -0.00164262    0.04170606   -0.04496912   -0.00073545   -0.00495483    0.07988447   -0.16124622   -0.00278848
   38    0.04344130    0.01767175   -0.00533747    0.03794419    0.10149234    0.10941240   -0.27591284    0.02527404
   39   -0.11664822    0.01897423    0.01102514   -0.15583404   -0.00558632   -0.07734231    0.18348811    0.00669877
   40    0.00000420   -0.06382539   -0.22500295   -0.00000299    0.00002027    0.01092578   -0.06577555    0.00000277
   41   -0.38344237    0.00001868    0.00000684   -0.11690179   -0.08181639    0.00000501   -0.00000547    0.03263953
   42    0.26564778   -0.00000701    0.00001089   -0.30991626    0.56953024    0.00001382   -0.00000574    0.09491272
   43    0.00005387    0.04946017    0.95134350   -0.00000939   -0.00001639   -0.01965382    0.02943776   -0.00000262
   44   -0.20746552    0.00001188    0.00001111   -0.06788607   -0.17712995   -0.00000313    0.00000326   -0.09444982
   45   -0.00277172   -0.00000110   -0.00004998   -0.10243201    0.04611786    0.00000212   -0.00000136   -0.03942274
             17            18            19            20            21            22            23            24
    1   -0.19523350   -0.00000833    0.00000676   -0.00000716    0.00001438   -0.19670259   -0.00000158    0.27233657
    2   -0.00000829    0.27170988    0.23396069    0.12418638   -0.25130387   -0.00000219   -0.14949749    0.00001146
    3    0.00000045   -0.23862455   -0.21881411    0.08948525   -0.07245155   -0.00000460   -0.07471344    0.00000998
    4    0.09361428    0.00620278   -0.00389711    0.02020948   -0.03205470    0.04871174   -0.02960558   -0.05734423
    5   -0.18269957    0.06348286    0.07400991   -0.00390062   -0.00851846   -0.12903258    0.01010759    0.16823057
    6    0.24143633   -0.19414524   -0.12485509   -0.13115042    0.23138823    0.13634565    0.11209144   -0.15485362
    7    0.15060126    0.00000319   -0.00000617   -0.00000088    0.00000024    0.10688010    0.00000665   -0.14749942
    8   -0.00000076   -0.03642271    0.03485942   -0.13460828    0.19204382    0.00000057    0.09654808   -0.00000730
    9    0.00001568    0.00775365   -0.04116750    0.14244211   -0.20116916    0.00001069   -0.11737044   -0.00000776
   10    0.09361429   -0.00618872    0.00389495   -0.02019969    0.03203637    0.04870723    0.02959966   -0.05733892
   11    0.18270743    0.06349010    0.07399728   -0.00390738   -0.00851282    0.12903775    0.01012564   -0.16823714
   12   -0.24143867   -0.19415419   -0.12483693   -0.13114710    0.23138840   -0.13635616    0.11207927    0.15485225
   13    0.09994783    0.00000537   -0.00002144    0.00000514   -0.00001732    0.31970558    0.00000022   -0.32548230
   14    0.00001176   -0.22079887   -0.01234370   -0.19009128    0.38455307    0.00000203    0.20564719   -0.00001560
   15    0.00000316    0.32093600    0.49422982   -0.06495926   -0.00325710    0.00001013    0.08277377   -0.00001409
   16   -0.02976793   -0.00391874    0.00399913    0.00394456   -0.00287790   -0.05780756   -0.00799777    0.04539712
   17   -0.07669907   -0.07173288    0.00194714   -0.05041131    0.11067777   -0.19654030    0.04841861    0.18586897
   18   -0.31911297    0.04287026    0.29113280   -0.14460985    0.15545403   -0.05311048   -0.09640776   -0.19761612
   19   -0.02979474    0.00391963   -0.00401772   -0.00392738    0.00285821   -0.05782665    0.00799587    0.04540029
   20    0.07670085   -0.07172441    0.00194105   -0.05041956    0.11067735    0.19653022    0.04843361   -0.18586986
   21    0.31911487    0.04288948    0.29112155   -0.14462076    0.15545492    0.05310378   -0.09642396    0.19761548
   22    0.12590626    0.00001567    0.00000100   -0.00000205    0.00000977   -0.35022631    0.00000231    0.07802244
   23    0.00000561   -0.33639515   -0.03691802    0.27777279   -0.24726066   -0.00000448   -0.24002645   -0.00000159
   24   -0.00001454    0.34054385   -0.41771061    0.02914255   -0.17280223   -0.00000583    0.19450339    0.00001493
   25   -0.03366661    0.00075198    0.00625780   -0.00563524   -0.01012084    0.06504630    0.00077077   -0.01272862
   26    0.08433061   -0.10039571   -0.01937877    0.09887220   -0.05494802   -0.21672886   -0.06816066    0.04193366
   27    0.34108300    0.06727240   -0.27725093   -0.17328144   -0.01704416    0.06384963   -0.18863006    0.30450101
   28   -0.03365109   -0.00074756   -0.00624289    0.00562804    0.01013412    0.06501771   -0.00075777   -0.01271961
   29   -0.08433828   -0.10040297   -0.01936587    0.09886286   -0.05493369    0.21674731   -0.06815098   -0.04194202
   30   -0.34111964    0.06727029   -0.27724768   -0.17325411   -0.01705358   -0.06384114   -0.18861172   -0.30450418
   31   -0.23556713   -0.00001401    0.00001391    0.00001114    0.00001133    0.38854536   -0.00000372    0.20063982
   32   -0.00001539    0.43411709   -0.22572305    0.16859550    0.25797677    0.00000827    0.19842454    0.00001360
   33    0.00001247   -0.12152395    0.08739144    0.54168037    0.28237311   -0.00001002    0.03027012   -0.00001073
   34    0.11820198   -0.00014739    0.00429919    0.00549489    0.00845224   -0.10838910   -0.01394274   -0.05396787
   35   -0.24638304    0.12212841   -0.07241441    0.02462429    0.05619574    0.31282503    0.07296782    0.17561663
   36    0.13452599   -0.06663018    0.05150307    0.12807784    0.21203928    0.17278419   -0.31967493    0.33079784
   37    0.11819668    0.00014642   -0.00429498   -0.00547559   -0.00843260   -0.10840945    0.01391816   -0.05399325
   38    0.24637596    0.12214197   -0.07242236    0.02464562    0.05619870   -0.31282031    0.07297314   -0.17560167
   39   -0.13452730   -0.06662644    0.05150726    0.12806435    0.21202900   -0.17275544   -0.31967734   -0.33080661
   40    0.06926416   -0.00000267    0.00000094   -0.00001576   -0.00001248   -0.14057288    0.00000235   -0.11665231
   41    0.00000582   -0.06427031   -0.00004347   -0.36049907   -0.15821935   -0.00000862   -0.19719961   -0.00000905
   42    0.00000317   -0.14184865    0.06205097   -0.39645474   -0.22108710    0.00000093   -0.01055101    0.00000255
   43   -0.01608908   -0.00000652    0.00000326    0.00000019   -0.00000811    0.00142273    0.00001297   -0.00865865
   44    0.00000447   -0.24740107    0.13855862    0.11956370   -0.26533562    0.00000296    0.51214343    0.00001708
   45    0.00000476   -0.18118449    0.10234573    0.02455148   -0.19856449    0.00000117    0.34123586    0.00001126
             25            26            27            28            29            30            31            32
    1    0.00003017   -0.07715044   -0.17440544    0.00000704    0.00000726   -0.00000231    0.00000046   -0.17390645
    2    0.14102198    0.00001861    0.00001564   -0.18606643    0.16623027    0.01104355    0.10318398   -0.00000745
    3    0.05256047    0.00000428   -0.00000014    0.10709148   -0.38219290    0.00784899    0.03286472   -0.00000635
    4    0.05143036    0.01542363    0.02231333   -0.14146425    0.11585081    0.03387226    0.25016300    0.05055454
    5   -0.04292578   -0.04596682   -0.09590329    0.14245184   -0.08810922   -0.04433200   -0.32958620   -0.14292547
    6   -0.03086984    0.02636843    0.09951579   -0.18704659    0.41602767    0.00175892   -0.05442594   -0.46102912
    7   -0.00001680    0.05436705    0.05239891   -0.00000580    0.00001349    0.00000734   -0.00003347    0.69899591
    8   -0.12172659   -0.00001539   -0.00001523    0.24767659   -0.36444480    0.01173949    0.18464645    0.00003812
    9    0.13168755    0.00002248    0.00002221   -0.19169044    0.19711746   -0.00466332   -0.11915401    0.00002943
   10   -0.05143476    0.01540524    0.02229576    0.14146462   -0.11587724   -0.03386667   -0.25012773    0.05049387
   11   -0.04297569    0.04595598    0.09589389    0.14246462   -0.08812107   -0.04433315   -0.32962487    0.14292330
   12   -0.03083493   -0.02637629   -0.09952751   -0.18703231    0.41601981    0.00176707   -0.05448433    0.46102953
   13    0.00001583    0.07633160   -0.08419360   -0.00001063   -0.00000828    0.00000157    0.00000701   -0.06776293
   14   -0.07679515   -0.00000481   -0.00002101   -0.01990754   -0.02416104    0.00127853   -0.17648739   -0.00001240
   15   -0.24914453   -0.00003260   -0.00003214    0.36682215    0.29137657   -0.08947217    0.06734354   -0.00000220
   16    0.00792074   -0.00370541    0.01036869    0.02028508   -0.00909365    0.02269845    0.30982507    0.00020478
   17   -0.01028762   -0.03978413    0.04526828    0.03114855   -0.02337399    0.03326402    0.38763360    0.03061162
   18    0.32389059    0.10349853    0.55443458   -0.33776964   -0.23637219    0.04939336   -0.04966967   -0.03033562
   19   -0.00794382   -0.00370402    0.01040457   -0.02026444    0.00911117   -0.02270420   -0.30985240    0.00017833
   20   -0.01028292    0.03978245   -0.04527224    0.03114608   -0.02337345    0.03326106    0.38761162   -0.03057949
   21    0.32409392   -0.10339116   -0.55433765   -0.33775319   -0.23636223    0.04939534   -0.04968862    0.03033495
   22   -0.00005904    0.23516655    0.19219184    0.00000301    0.00000094   -0.00000526   -0.00000307    0.00324901
   23   -0.10800537   -0.00001576   -0.00000364    0.03246809    0.03620433    0.10529175    0.03687812    0.00001332
   24   -0.29204513   -0.00005073   -0.00004282   -0.31367751   -0.15020048    0.25554249   -0.03849010   -0.00000772
   25   -0.01765114   -0.02828456   -0.01750665    0.01489443    0.00188241    0.16297054    0.07590763   -0.00267651
   26   -0.01295788    0.13946525    0.09704145   -0.02390780    0.00618291   -0.20206429   -0.09650649    0.00045613
   27    0.38731318   -0.35972569    0.33949362    0.27044690    0.11072100   -0.16397768    0.02620513    0.02808093
   28    0.01765728   -0.02826153   -0.01748804   -0.01489705   -0.00188520   -0.16294090   -0.07589563   -0.00271592
   29   -0.01288407   -0.13947535   -0.09705596   -0.02391329    0.00618057   -0.20208877   -0.09651696   -0.00050534
   30    0.38730971    0.35984801   -0.33936261    0.27044890    0.11072091   -0.16396262    0.02620553   -0.02807005
   31   -0.00000308   -0.14483094    0.07433166   -0.00001031   -0.00000352   -0.00002005    0.00000275    0.00845216
   32    0.22336946    0.00002192    0.00003927    0.08165650    0.01705330    0.10153769   -0.00210172   -0.00000425
   33    0.00692625   -0.00000741   -0.00000518   -0.08227574   -0.04489095   -0.44770004    0.08309808    0.00001810
   34    0.00207512    0.00085037   -0.00662495    0.01185827    0.00812705    0.04072029    0.00586627   -0.00082907
   35    0.06051436   -0.02876576    0.04845153    0.01491399   -0.00164253    0.00402398   -0.01656412    0.00402014
   36    0.00098131    0.53415626    0.04397114    0.14705471    0.08045802    0.45318383   -0.08375549   -0.00685077
   37   -0.00206912    0.00080884   -0.00662946   -0.01184515   -0.00812031   -0.04068272   -0.00587373   -0.00081893
   38    0.06053762    0.02877894   -0.04842815    0.01492237   -0.00163990    0.00402850   -0.01656451   -0.00401109
   39    0.00115977   -0.53415686   -0.04395900    0.14705496    0.08045850    0.45319518   -0.08375897    0.00681764
   40    0.00001925   -0.08047090   -0.02368430    0.00000211    0.00000072    0.00000252   -0.00000068    0.00007458
   41   -0.20449289   -0.00002154   -0.00003441   -0.09721743   -0.03416086   -0.14010138    0.02355041    0.00000418
   42   -0.01479943    0.00000621   -0.00000243    0.01085205    0.00435043    0.02886771   -0.00765141   -0.00000193
   43    0.00001104   -0.01120806   -0.00252282    0.00000348    0.00000105    0.00000551   -0.00000101   -0.00014951
[...]
           HZ6             -0.03022    -0.04646     0.03916     0.00406     0.00115
           HX7              0.00018     0.12957    -0.25756    -0.06277    -0.15030
           HY7             -0.03046    -0.14636     0.30559     0.07337    -0.10557
           HZ7              0.03022    -0.04645     0.03914     0.00406     0.00114
           CX8              0.00094     0.00000     0.00000     0.00000     0.00001
           CY8              0.00000    -0.05945    -0.04601    -0.01487     0.00150
           CZ8             -0.00000     0.01207     0.02887     0.00533    -0.00140
           HX9             -0.00267    -0.29693    -0.23239    -0.08765    -0.00814
           HY9              0.00045     0.35828     0.28405     0.10911    -0.00542
           HZ9              0.02797    -0.03139    -0.05104    -0.02463     0.00074
           HX10            -0.00271     0.29688     0.23236     0.08763     0.00808
           HY10            -0.00050     0.35832     0.28408     0.10912    -0.00537
           HZ10            -0.02796    -0.03139    -0.05104    -0.02462     0.00075
           CX11             0.00244    -0.00000    -0.00000    -0.00000    -0.00002
           CY11            -0.00000     0.01458     0.02252    -0.07834    -0.06150
           CZ11             0.00001    -0.04481    -0.03492    -0.01704     0.00620
           HX12            -0.00083     0.05528     0.10943    -0.39487     0.54760
           HY12             0.00400    -0.05502    -0.13209     0.51053     0.37074
           HZ12            -0.00682     0.13107     0.08348     0.08764    -0.01451
           HX13            -0.00082    -0.05526    -0.10942     0.39488    -0.54732
           HY13            -0.00400    -0.05502    -0.13209     0.51052     0.37054
           HZ13             0.00679     0.13108     0.08349     0.08761    -0.01445
           OX14             0.00002     0.00000     0.00000    -0.00000     0.00000
           OY14             0.00000    -0.00905    -0.00357    -0.00887    -0.00068
           OZ14            -0.00000     0.00505     0.00357    -0.00069    -0.00199
           HX15            -0.00015     0.00000     0.00000     0.00000    -0.00000
           HY15            -0.00001     0.06689     0.04185     0.01449    -0.00636
           HZ15            -0.00001     0.05051     0.03079     0.01350    -0.00455

                             31 A        32 A        33 A        34 A        35 A  
 Wavenumbers [cm-1]         3146.11     3150.88     3156.08     3165.08     3167.26
 Intensities [km/mol]          0.00        0.00        0.00        0.00        0.00
 Intensities [relative]        0.00        0.00        0.00        0.00        0.00
           CX1              0.00000    -0.00298    -0.00000     0.02119    -0.00001
           CY1              0.00106     0.00000    -0.03312     0.00000     0.00412
           CZ1             -0.01595    -0.00001     0.03322    -0.00000    -0.01108
           HX2             -0.11050     0.01902     0.46065    -0.13121    -0.09773
           HY2             -0.07982     0.01435     0.32537    -0.09734    -0.07051
           HZ2              0.00039    -0.00066    -0.01408     0.00381     0.00375
           HX3             -0.00001    -0.00149     0.00003     0.00560    -0.00001
           HY3              0.14452     0.00011    -0.26341     0.00003     0.09097
           HZ3              0.18684     0.00014    -0.35229     0.00005     0.12677
           HX4              0.11047     0.01924    -0.46065    -0.13112     0.09786
           HY4             -0.07978    -0.01451     0.32530     0.09726    -0.07059
           HZ4              0.00040     0.00067    -0.01412    -0.00382     0.00377
           CX5             -0.00001     0.00930    -0.00000    -0.08111     0.00004
           CY5              0.06035     0.00003     0.02102    -0.00001     0.00412
           CZ5              0.00089     0.00000    -0.00170    -0.00000    -0.00072
           HX6              0.50539    -0.05349     0.17000     0.48752     0.03855
           HY6             -0.35740     0.03976    -0.12225    -0.36876    -0.02645
           HZ6             -0.00248    -0.00074     0.00180    -0.00058    -0.00022
           HX7             -0.50522    -0.05391    -0.16996     0.48755    -0.03900
           HY7             -0.35734    -0.04006    -0.12225     0.36884    -0.02679
           HZ7             -0.00251     0.00073     0.00178     0.00062    -0.00022
           CX8             -0.00001     0.02253     0.00000     0.02875    -0.00001
           CY8             -0.01016    -0.00001     0.01271     0.00003     0.06495
           CZ8             -0.00059     0.00000    -0.00020     0.00000     0.00085
           HX9              0.08309    -0.13937    -0.10957    -0.17637    -0.54219
           HY9              0.05861    -0.10529    -0.07657    -0.13363    -0.38247
           HZ9              0.00194    -0.00518    -0.00004    -0.00052    -0.00713
           HX10            -0.08296    -0.13953     0.10952    -0.17592     0.54231
           HY10             0.05850     0.10538    -0.07651     0.13327    -0.38245
           HZ10             0.00193     0.00518    -0.00004     0.00051    -0.00712
           CX11             0.00005    -0.08714    -0.00001    -0.00091     0.00000
           CY11             0.01665     0.00003     0.00512     0.00000     0.00268
           CZ11            -0.00205     0.00000    -0.00015     0.00000     0.00171
           HX12            -0.14493     0.51798    -0.04178     0.00800    -0.02186
           HY12            -0.09920     0.37765    -0.02849     0.00680    -0.01466
           HZ12             0.00570    -0.02108     0.00093    -0.00049    -0.00071
           HX13             0.14437     0.51841     0.04189     0.00802     0.02186
           HY13            -0.09880    -0.37795    -0.02858    -0.00682    -0.01466
           HZ13             0.00567     0.02105     0.00093     0.00049    -0.00072
           OX14            -0.00000     0.00042     0.00000     0.00003    -0.00000
           OY14            -0.00003     0.00000    -0.00007    -0.00000    -0.00028
           OZ14             0.00071     0.00000     0.00023    -0.00000    -0.00040
           HX15            -0.00000     0.00053     0.00000    -0.00063     0.00000
           HY15             0.00274     0.00000     0.00037    -0.00000    -0.00149
           HZ15             0.00166     0.00000     0.00039    -0.00000    -0.00172

                             36 A        37 A        38 A        39 A  
 Wavenumbers [cm-1]         3205.04     3218.71     3220.90     4187.47
 Intensities [km/mol]          0.00        0.00        0.00        0.00
 Intensities [relative]        0.00        0.00        0.00        0.00
           CX1              0.05149    -0.00002    -0.06874    -0.00000
           CY1              0.00001    -0.07113     0.00002    -0.00001
           CZ1              0.00000    -0.05136     0.00001    -0.00001
           HX2             -0.31157     0.28775     0.41742    -0.00002
           HY2             -0.23109     0.19138     0.31101    -0.00004
           HZ2              0.01054    -0.02146    -0.01848    -0.00000
           HX3              0.01246    -0.00006    -0.01296    -0.00000
           HY3             -0.00002     0.46831    -0.00016     0.00015
           HZ3             -0.00003     0.65274    -0.00022     0.00024
           HX4             -0.31159    -0.28750     0.41768     0.00002
           HY4              0.23106     0.19115    -0.31112    -0.00004
           HZ4             -0.01057    -0.02147     0.01854    -0.00000
           CX5             -0.01049    -0.00001    -0.03440    -0.00000
           CY5              0.00000    -0.00874     0.00000     0.00006
           CZ5             -0.00000    -0.00020    -0.00000     0.00005
           HX6              0.06346    -0.06504     0.20242     0.00019
           HY6             -0.04839     0.04787    -0.15234    -0.00016
           HZ6             -0.00503    -0.00088    -0.00046    -0.00006
           HX7              0.06345     0.06519     0.20238    -0.00019
           HY7              0.04839     0.04799     0.15233    -0.00016
           HZ7              0.00504    -0.00088     0.00048    -0.00006
           CX8             -0.06921    -0.00002    -0.04329     0.00000
           CY8              0.00000    -0.00227     0.00000    -0.00016
           CZ8             -0.00000     0.00028    -0.00000     0.00014
           HX9              0.41164     0.02147     0.25781    -0.00032
           HY9              0.30891     0.01541     0.19397    -0.00016
           HZ9              0.00436     0.00161     0.00558     0.00034
           HX10             0.41176    -0.02125     0.25789     0.00032
           HY10            -0.30891     0.01524    -0.19397    -0.00016
           HZ10            -0.00436     0.00160    -0.00557     0.00034
           CX11            -0.02285    -0.00001    -0.01314    -0.00000
           CY11             0.00000    -0.00095     0.00000     0.00144
           CZ11             0.00000     0.00014     0.00000     0.00021
           HX12             0.13083     0.00808     0.07626    -0.00029
           HY12             0.09415     0.00579     0.05532     0.00069
           HZ12            -0.00788    -0.00083    -0.00577     0.00222
           HX13             0.13084    -0.00802     0.07627     0.00029
           HY13            -0.09417     0.00575    -0.05533     0.00069
           HZ13             0.00787    -0.00082     0.00576     0.00222
           OX14             0.00038     0.00000     0.00028    -0.00000
           OY14             0.00000     0.00002     0.00000     0.03080
           OZ14            -0.00000    -0.00003    -0.00000    -0.05249
           HX15             0.00077     0.00000     0.00024     0.00005
           HY15             0.00000     0.00002     0.00000    -0.50540
           HZ15             0.00000    -0.00021     0.00000     0.82340


 Normal Modes of low/zero frequencies

                                  1           2           3           4           5
 Wavenumbers [cm-1]            0.00        0.00        0.00        0.00        0.00
 Intensities [km/mol]          0.00        0.00        0.00        0.00        0.00
 Intensities [relative]        0.00        0.00        0.00        0.00        0.00
           CX1              0.00000    -0.00000     0.20817     0.00000    -0.00000
           CY1              0.01465     0.17201    -0.00000     0.00881    -0.07979
           CZ1              0.11173     0.01495     0.00000    -0.03037     0.01450
           HX2              0.00112     0.02596     0.24749    -0.01035    -0.00693
           HY2              0.01314     0.13749    -0.05086     0.02097    -0.07284
           HZ2              0.11217     0.03021     0.04259    -0.05864    -0.02076
           HX3              0.00189    -0.04208     0.21471     0.00183    -0.02228
           HY3              0.01135     0.21474    -0.00001    -0.01944    -0.09064
           HZ3              0.11407    -0.01540     0.00000    -0.01031     0.02220
           HX4              0.00112     0.02596     0.24749    -0.01035    -0.00693
           HY4              0.01581     0.21102     0.05086    -0.00631    -0.08788
           HZ4              0.10653     0.06141    -0.04259    -0.04290     0.03409
           CX5             -0.00537    -0.01258     0.09753     0.02451     0.04705
           CY5              0.01939     0.11048    -0.00000     0.04949    -0.06416
           CZ5              0.11486    -0.02566     0.00000    -0.00352     0.02481
           HX6             -0.00636    -0.03995     0.05976     0.03464     0.05260
           HY6              0.01806     0.07404    -0.05051     0.06299    -0.05671
           HZ6              0.12009    -0.07265     0.04230     0.00948     0.00558
           HX7             -0.00636    -0.03995     0.05976     0.03464     0.05260
           HY7              0.02071     0.14705     0.05050     0.03590    -0.07165
           HZ7              0.11449    -0.04167    -0.04230     0.02512     0.06004
           CX8             -0.00817     0.04553     0.08495     0.02274     0.07952
           CY8              0.02412     0.04913     0.00000     0.09005    -0.04858
           CZ8              0.11171     0.01526    -0.00000    -0.03057     0.01443
           HX9             -0.00723     0.07298     0.12178     0.01280     0.07445
           HY9              0.02286     0.01181    -0.05057     0.10411    -0.04091
           HZ9              0.11209     0.03105     0.04235    -0.05909    -0.02079
           HX10            -0.00723     0.07298     0.12177     0.01281     0.07445
           HY10             0.02551     0.08492     0.05058     0.07699    -0.05587
           HZ10             0.10649     0.06207    -0.04236    -0.04343     0.03375
           CX11            -0.01350     0.03320    -0.02483     0.04705     0.12627
           CY11             0.02884    -0.01207     0.00000     0.13050    -0.03305
           CZ11             0.11480    -0.02492    -0.00000    -0.00401     0.02463
           HX12            -0.01455     0.00663    -0.06313     0.05723     0.13244
           HY12             0.03026     0.02377     0.05100     0.11750    -0.04033
           HZ12             0.11437    -0.04031    -0.04271     0.02440     0.06000
           HX13            -0.01455     0.00663    -0.06313     0.05723     0.13244
           HY13             0.02759    -0.04994    -0.05099     0.14484    -0.02525
           HZ13             0.12002    -0.07160     0.04270     0.00861     0.00501
           OX14            -0.01572     0.08926    -0.02776     0.04338     0.15320
           OY14             0.03294    -0.06519    -0.00000     0.16562    -0.01956
           OZ14             0.11156     0.01713     0.00000    -0.03181     0.01395
           HX15            -0.01903     0.08256    -0.09530     0.05827     0.18237
           HY15             0.03590    -0.10364    -0.00000     0.19104    -0.00979
           HZ15             0.11342    -0.00691     0.00000    -0.01592     0.02005

                                  6
 Wavenumbers [cm-1]            0.00
 Intensities [km/mol]          0.00
 Intensities [relative]        0.00
           CX1              0.00000
           CY1              0.04324
           CZ1              0.00636
           HX2             -0.11435
           HY2              0.20171
           HZ2              0.02777
           HX3              0.12527
           HY3              0.05614
           HZ3             -0.00279
           HX4             -0.11433
           HY4             -0.11389
           HZ4              0.00356
           CX5              0.13371
           CY5              0.02468
           CZ5             -0.00589
           HX6              0.25110
           HY6              0.18141
           HZ6             -0.00336
           HX7              0.25111
           HY7             -0.13199
           HZ7             -0.02741
           CX8             -0.03626
           CY8              0.00617
           CZ8              0.00645
           HX9             -0.15312
           HY9              0.16284
           HZ9              0.02793
           HX10            -0.15310
           HY10            -0.15098
           HZ10             0.00385
           CX11             0.09593
           CY11            -0.01227
           CZ11            -0.00566
           HX12             0.21128
           HY12            -0.17080
           HZ12            -0.02716
           HX13             0.21128
           HY13             0.14563
           HZ13            -0.00289
           OX14            -0.07593
           OY14            -0.02828
           OZ14             0.00702
           HX15             0.00264
           HY15            -0.03987
           HZ15            -0.00023


 Frequencies dumped to record   5400.2

 Zero point energy:  0.14567972 [H]    31973.00 [1/CM]      382.48 [KJ/MOL]
 Frequency information read from record  5400.2


 **********************************************************************************************************************************
 DATASETS  * FILE   NREC   LENGTH (MB)   RECORD NAMES
              1      19      182.09       500      610      700      900      950      970     1000      129      960     1100   
                                          VAR    BASINP    GEOM    SYMINP    ZMAT    AOBASIS   BASIS     P2S    ABASIS      S 
                                         1400     1410     1200     1210     1080     1600     1650     1300     1700   
                                           T        V       H0       H01     AOSYM     SMH    MOLCAS    ERIS     OPER   

              2       7        1.28       700     1000      520     2100     5300     5450     5400   
                                         GEOM     BASIS   MCVARS     RHF     HESS     NMOD     FREQ   

              4       5       15.69      4100     4000     4200     4300     4400   

 PROGRAMS   *        TOTAL      FREQ      OPTG    HF-SCF       INT
 CPU TIMES  *      3115.42   2204.80    854.12     50.10      6.22
 REAL TIME  *       805.74 SEC
 DISK USED  *       760.11 MB
 **********************************************************************************************************************************

 Dump information in style MOLDEN to butanoltrans.molden                                                             

 Molecular orbitals read from record     2100.2  Type=RHF/CANONICAL  
 Occupation numbers read from record     2100.2  Type=RHF/RHF  
 Orbital energies read from record       2100.2  Type=RHF/CANONICAL  
 Redundancy group numbers read from rec  2100.2  Type=RHF/RHF  

 DUMP ORBITAL  1.1 AS ORBITAL    1  occ=    2.0000  eig=  -20.5399  GROUP=   2
 DUMP ORBITAL  2.1 AS ORBITAL    2  occ=    2.0000  eig=  -11.2667  GROUP=   2
 DUMP ORBITAL  3.1 AS ORBITAL    3  occ=    2.0000  eig=  -11.2180  GROUP=   2
 DUMP ORBITAL  4.1 AS ORBITAL    4  occ=    2.0000  eig=  -11.2107  GROUP=   2
 DUMP ORBITAL  5.1 AS ORBITAL    5  occ=    2.0000  eig=  -11.2095  GROUP=   2
 DUMP ORBITAL  6.1 AS ORBITAL    6  occ=    2.0000  eig=   -1.3622  GROUP=   2
 DUMP ORBITAL  7.1 AS ORBITAL    7  occ=    2.0000  eig=   -1.0709  GROUP=   2
 DUMP ORBITAL  8.1 AS ORBITAL    8  occ=    2.0000  eig=   -0.9756  GROUP=   2
 DUMP ORBITAL  9.1 AS ORBITAL    9  occ=    2.0000  eig=   -0.8561  GROUP=   2
 DUMP ORBITAL 10.1 AS ORBITAL   10  occ=    2.0000  eig=   -0.7959  GROUP=   2
 DUMP ORBITAL 11.1 AS ORBITAL   11  occ=    2.0000  eig=   -0.6943  GROUP=   2
 DUMP ORBITAL 12.1 AS ORBITAL   12  occ=    2.0000  eig=   -0.6610  GROUP=   2
 DUMP ORBITAL 13.1 AS ORBITAL   13  occ=    2.0000  eig=   -0.6039  GROUP=   2
 DUMP ORBITAL 14.1 AS ORBITAL   14  occ=    2.0000  eig=   -0.5937  GROUP=   2
 DUMP ORBITAL 15.1 AS ORBITAL   15  occ=    2.0000  eig=   -0.5615  GROUP=   2
 DUMP ORBITAL 16.1 AS ORBITAL   16  occ=    2.0000  eig=   -0.5226  GROUP=   2
 DUMP ORBITAL 17.1 AS ORBITAL   17  occ=    2.0000  eig=   -0.5114  GROUP=   2
 DUMP ORBITAL 18.1 AS ORBITAL   18  occ=    2.0000  eig=   -0.4747  GROUP=   2
 DUMP ORBITAL 19.1 AS ORBITAL   19  occ=    2.0000  eig=   -0.4703  GROUP=   2
 DUMP ORBITAL 20.1 AS ORBITAL   20  occ=    2.0000  eig=   -0.4625  GROUP=   2
 DUMP ORBITAL 21.1 AS ORBITAL   21  occ=    2.0000  eig=   -0.4368  GROUP=   2

 Total charge:      42.000000
 Frequency information read from record  5400.2

 **********************************************************************************************************************************

 HF/6-311G(D,P)//HF/6-311G(D,P) energy=   -232.213660410810

    OPTG(HF-SCF)          HF-SCF
   -232.21366041   -232.14986793
 **********************************************************************************************************************************
 Molpro calculation terminated
