[Molden Format]
[Molpro variables]
_NUMVAR=  1113.000000000000    
_AVOGAD= 0.6022140760000000E+24
_BOLTZ= 0.1380649000000000E-22
_CLIGHTSI=  299792458.0000000    
_JOULE= 0.4359744722207100E-17
_JPCAL=  4.184000000000000    
_PLANCK= 0.6626070150000000E-33
_BOHR= 0.5291772109030000E-10
_ECHARG= 0.1602176634000000E-18
_ENULL= 0.8854187812800001E-11
_MU= 0.1660539066600000E-26
_EMASS= 0.9109383701500001E-30
_AMU2AU=  1822.888486217313    
_CLIGHT=  29979245800.00000    
_EV= 0.3674932217565494E-01
_KJOULE= 0.3808798847133432E-03
_KJOULE/MOL= 0.3808798847133432E-03
_CM= 0.4556335252912009E-05
_CM-1= 0.4556335252912009E-05
_DEB2SI= 0.3335640951981520E-29
_KCAL= 0.1593601437640628E-02
_KCAL/MOL= 0.1593601437640628E-02
_KELVIN= 0.3166811563455608E-05
_HERTZ= 0.1519829846057038E-15
_HZ= 0.1519829846057038E-15
_TOA= 0.5291772109030000    
_TOANG= 0.5291772109030000    
_TORAD= 0.1745329251994330E-01
_TOCM=  219474.6313631965    
_TODEBYE=  2.541746473194078    
_TOE= 0.4803204712570263E-09
_TOEV=  27.21138624598803    
_TOHERTZ=  6579683920501656.    
_TOHZ=  6579683920501656.    
_TOK=  315775.0248040668    
_TOKCAL=  627.5094740630558    
_TOKELVIN=  315775.0248040668    
_TOKJ=  2625.499639479825    
_TOKJOULE=  2625.499639479825    
_TOKG= 0.1660539066600000E-26
_ANG=  1.889726124625770    
_ANGSTROM=  1.889726124625770    
_RPAREF=  0.000000000000000    
_RPADISS=  0.000000000000000    
_IGNORE_UNDEF=  2.000000000000000    
_STRICTCHECK=  0.000000000000000    
!SEWARD=  0.000000000000000    
!MULTI=  0.000000000000000    
!DFMULTI=  0.000000000000000    
_SEW_ONEEL=  0.000000000000000    
_CPPDONE=FALSE
_DKROLL_DONE=  0.000000000000000    
_FNUC_DONE=  0.000000000000000    
_FOCKDONE=TRUE
_GRADONE=FALSE
_HESSDONE=TRUE
_INTDONE=TRUE
_SCFDONE=TRUE
_MODUL_BLOCK=FALSE
_MODUL_SLATER=FALSE
_MODUL_MRCC=FALSE
_MODUL_NBO6=FALSE
_MODUL_NECI=FALSE
_MODUL_AIMS=TRUE
_MODUL_HDF5=FALSE
_MODUL_GECCO=FALSE
_ISWINDOWS=FALSE
_MRCC_EXEC=
_FITC_AO_SAVED=FALSE
_FITC_MO_SAVED=FALSE
_SHARED_FS=TRUE
_LSTYP=SEWARD
_INTYP=INTS
_GEOMTYP=ZMAT
_GRADTYP=ALASKA
_DIRECT=FALSE
_DKHO= -1.000000000000000    
_FNUC=  0.000000000000000    
_SYNCM=  0.000000000000000    
_BASIS=6-311G(D,P)
_ZCENTRE=MASS
_ZORIENT=  1.000000000000000    
_NELEC=  42.00000000000000    
!SPIN=  0.000000000000000    
_OPTCONV= 0.6756641295496955E-02
_QSDSTEP=  0.000000000000000    
_QSDIRC=  0.000000000000000    
_PROGRAM=FREQ
_CPUSTEP=  1710.330000000000    
_SYSSTEP=  16.42000000000000    
_WALLSTEP=  467.3500000000000    
!DFSCF=  0.000000000000000    
!SCSGRD=  0.000000000000000    
_NCEN=  15.00000000000000    
_CPUTOT=  15784.55000000000    
_DFTEXFAC=  1.000000000000000    
_DMX=-0.4844988816286399    
_DMY=-0.2551939270263948E-01
_DMZ= 0.5197525581594826    
_DMX_SCF=-0.4844988816286399    
_DMY_SCF=-0.2551939270263948E-01
_DMZ_SCF= 0.5197525581594826    
_FREQUENCIES= 0.2586146117322479E-04
_HOMO=  21.10000000000000    
_EHOMO=-0.4289698263135879    
_LUMO=  22.10000000000000    
_ELUMO= 0.1538983259418202    
_ENERGY= -232.2135667740467    
_ENERGY_METHOD=HF
_ENERGY_BASIS=6-311G(D,P)
_GEOMETRY_METHOD=HF
_GEOMETRY_BASIS=6-311G(D,P)
_ENUC=  185.6561400669382    
_GRADENERG= -232.2135665933338    
_GRADEXFAC=  9999.000000000000    
_GRADMETHOD=  1.000000000000000    
_NMRMETHOD=  0.000000000000000    
_NMRMAGNET=  0.000000000000000    
_VIRIAL=-0.2151137918223588E-04
!GRID_FREEZE= -1.000000000000000    
!NEESE_INDEX=  0.000000000000000    
_ITERATIONS=  11.00000000000000    
_LASTNELEC=  42.00000000000000    
_LASTSPIN=  0.000000000000000    
_LASTSYM=  1.000000000000000    
_MPP_PROG=  1.000000000000000    
_MSNSTATES=  0.000000000000000    
_RS2PHASE=  0.000000000000000    
_IPROC_MPP=  0.000000000000000    
_IPROC_MPPX=  0.000000000000000    
_NPROC_MPP=  4.000000000000000    
_NPROC_MPPX=  4.000000000000000    
_NPROC_SMP=  8.000000000000000    
_NUMSTEP=  0.000000000000000    
_OPTCONVMX= 0.6240000765209919E-02
_OPTCONVRMS= 0.1744557280917180E-02
_OPTGRAD= 0.1228516746366063E-03
_OPTGRADMX= 0.8678791608523918E-04
_OPTGRADRMS= 0.3150042939400162E-05
_OPTSTEP=  20.00000000000000    
_ORBITAL=  2100.200000000000    
_PI=  3.141592653589793    
_SEIG_MIN= 0.1674512123229807E-02
_SEWPROP=TRUE
_STATUS=  1.000000000000000    
_SYSTOT=  86.94000000000000    
_VERSION=  2022003.000000000    
_WALLTOT=  7298.260000000000    
_ZPE= 0.1457512878768559    
_DATE=06-Aug-25
_LASTORB=0
_OUTPUT=/home/zwa/Overlap_Integral_Project/overlap_integral_gaussian/molpro_files/butanol/butanolgauche.out
_PGROUP=C1
_TIME=09:23:45
_LIBMOL=/usr/local/molpro/molpro_2022.3.0_sockets/lib/
_VIGRDC=  0.000000000000000    
!VIBCNT=  0.000000000000000    
!RGHFCNT=  0.000000000000000    
!SURFREC=  0.000000000000000    
!XSURFREC=  0.000000000000000    
!XPOLYREC=  0.000000000000000    
!ROTREC=  0.000000000000000    
!POLYREC=  0.000000000000000    
!DIPREC=  0.000000000000000    
!DIP4DREC=  0.000000000000000    
!DIPROT=  0.000000000000000    
!DIP4DROT=  0.000000000000000    
!PTREC=  0.000000000000000    
!PT4DREC=  0.000000000000000    
!VSCFREC=  0.000000000000000    
!VCIREC=  0.000000000000000    
!PVCIREC=  0.000000000000000    
!VMP2REC=  0.000000000000000    
!VMCSCFREC=  0.000000000000000    
!VMRCIREC=  0.000000000000000    
!VIBSTATEREC=  0.000000000000000    
!VIBSTATECNT=  0.000000000000000    
!VIBINFO=  0.000000000000000    
!GAREC=  0.000000000000000    
!SCFORB=  21002.00000000000    
!DEFCORE=  5.000000000000000    
!SCORE=  0.000000000000000    
!NEWMOL=  0.000000000000000    
!NEWSYM=  0.000000000000000    
_SLFILES=slscratch
_NGSSTO=  9.000000000000000    
_SIN=SIN
_COS=COS
_TAN=TAN
_ACOS=ACOS
_ASIN=ASIN
_ATAN=ATAN
_COSH=COSH
_SINH=SINH
_TANH=TANH
_ABS=ABS
_MOD=MOD
_ERF=ERF
_REFC=REFC
_ERFC=ERFC
_HYPOT=HYPOT
_J0=J0
_J1=J1
_JN=JN
_GAMMA=GAMMA
_LGAMMA=LGAMMA
_Y0=Y0
_Y1=Y1
_YN=YN
_EXP=EXP
_LOG=LOG
_LOG10=LOG10
_SQRT=SQRT
_INT=INT
_NINT=NINT
_MAX=MAX
_MIN=MIN
_COSMO=  0.000000000000000    
_COSMOIT=  0.000000000000000    
_COSMOES=  0.000000000000000    
_COSMOEDS=  0.000000000000000    
_COSMOEC=  0.000000000000000    
_COSMOEDCORR=  0.000000000000000    
_FEPSI=  1.000000000000000    
_SL_IsMM=  0.000000000000000    
_SL_NSYM=  1.000000000000000    
_SL_System_BitSw=  0.000000000000000    
_SL_Unique_atoms=  0.000000000000000    
_SL_GRAD=  0.000000000000000    
_SL_MAXUPD_Hess=  5.000000000000000    
_SL_N_PRINT_COD=  5.000000000000000    
_SL_PRINT_CODES=  0.000000000000000    
_SL_BasType=  0.000000000000000    
_SL_Energy_Pred=  0.000000000000000    
_SL_New_Coords=  0.000000000000000    
_SL_Total_Nuclea=  0.000000000000000    
_SL_Highest_Mltp=  0.000000000000000    
_SL_Ref_Geom=  0.000000000000000    
_SL_Symmetry_ope=  1.000000000000000    
_SL_agrad=  0.000000000000000    
_SL_GrdMax=  0.000000000000000    
_SL_GrdNorm=  0.000000000000000    
_SL_GrdRMS=  0.000000000000000    
_SL_Hss_Q=  0.000000000000000    
_SL_Hss_X=  0.000000000000000    
_SL_BMxOld=  0.000000000000000    
_SL_KtB=  0.000000000000000    
_SL_TROld=  0.000000000000000    
_SL_No_of_Intern=  0.000000000000000    
_SL_Hess=  0.000000000000000    
_SL_K=  0.000000000000000    
!LATTICE= -1.000000000000000    
!NEWLATTICE=  0.000000000000000    
!LATGRAD_VAR=FALSE
!SEW_LATTICE=  1.000000000000000    
!AIC_ONEEL=  0.000000000000000    
!LOCAL=  0.000000000000000    
!SAVEDOM= -1.000000000000000    
!RESTDOM= -1.000000000000000    
!SAVEDOM_HF= -1.000000000000000    
!RESTDOM_HF= -1.000000000000000    
!HESSREC=  5300.200000000000    
!FREQREC=  5400.200000000000    
!NMODREC=  5450.200000000000    
!GTASKS=  0.000000000000000    
!HTASKS=  0.000000000000000    
!SAVEDOM_EOM= -1.000000000000000    
!RESTDOM_EOM= -1.000000000000000    
!GRADSTATE= -1.000000000000000    
!DEBUG=  0.000000000000000    
!CFIT_CPHF=  0.000000000000000    
!RDOMAUX_CPHF=  0.000000000000000    
!THRAO_CPHF= 0.1000000000000000E-11
!THRMO_CPHF= 0.1000000000000000E-11
!THROV_CPHF= 0.1000000000000000E-11
!THRSW_CPHF= 0.1000000000000000E-11
!THRPROD_CPHF= 0.1000000000000000E-11
!THRAOPR_CPHF= 0.1000000000000000E-11
!CFIT_SCFGRD=  0.000000000000000    
!RDOMAUX_SCFGRD=  0.000000000000000    
!THRAO_SCFGRD= 0.1000000000000000E-11
!THRMO_SCFGRD= 0.1000000000000000E-11
!THROV_SCFGRD= 0.1000000000000000E-11
!THRSW_SCFGRD= 0.1000000000000000E-11
!THRPROD_SCFGRD= 0.1000000000000000E-11
!THRAOPR_SCFGRD= 0.1000000000000000E-11
!LOCFIT_SCF=  0.000000000000000    
!LOCFIT_MP2=  0.000000000000000    
_RIDOM=  0.000000000000000    
!CC2_METHOD=  0.000000000000000    
_BASIS2006=FALSE
_SVDDEL= -1.000000000000000    
_SVDDELA= -1.000000000000000    
_SVDDELP= -1.000000000000000    
_SVDDELF= -1.000000000000000    
_SVDDELS= -1.000000000000000    
_SVDDEL_ABS= -1.000000000000000    
_SVDDELA_ABS= -1.000000000000000    
_SVDDELP_ABS= -1.000000000000000    
_SVDDELF_ABS= -1.000000000000000    
_SVDDELS_ABS= -1.000000000000000    
_MAXBASIS=  0.000000000000000    
!OPT_CONICAL=  0.000000000000000    
!CLEARSP_JGRID=  0.000000000000000    
_GRDHYBR=  0.000000000000000    
_STATEGRAD=  1.000000000000000    
_4EXT_NDISKS=  1.000000000000000    
!EMBEDFLAG=  1.000000000000000    
!EMBED=FALSE
!EMBED_F12=FALSE
!EMBEDNUC=  0.000000000000000    
_EMBEDENERGY=  0.000000000000000    
!EMBED_DFC=FALSE
!NUM_VOIDS=  0.000000000000000    
_IBODY=  0.000000000000000    
_EMBE_CORR=  0.000000000000000    
!EMBED_PROJ=FALSE
!EMB_PROJ_ZMU=  1000000.000000000    
!CORRECTION_HF=  0.000000000000000    
!EMBED_AORB=  0.000000000000000    
!EMBED_NACORR=  0.000000000000000    
!EMBED_MP2=FALSE
!EMBED_TRUNC_PERTURBATION=FALSE
!EMBED_FROZEN=  0.000000000000000    
!EMBED_ACTIVE=  0.000000000000000    
_CHANGE_BASIS=FALSE
_RESTORE_BASIS=FALSE
_FIX_EMBED_GUESS=FALSE
_EMBED_SCF=FALSE
_HUZINAGA_T=FALSE
_HUZINAGA_F=FALSE
_HUZINAGA=FALSE
_HUZINAGA_CORRECT=FALSE
!FASTLATGRAD=  1.000000000000000    
!FASTVLAMBDA= -1.000000000000000    
!IFORCE= -1.000000000000000    
!USESYM= -1.000000000000000    
_SINDEX=  0.000000000000000    
_AVDOM_OSV=  0.000000000000000    
_AVDOM_PNO=  0.000000000000000    
_AVDOM_PAO=  0.000000000000000    
_AVDOM_LMO=  0.000000000000000    
_CC2OSV_FLAG=  0.000000000000000    
_EOMCCSD_CONV=FALSE
_TMADC2_FLAG=FALSE
_PROPADC2_FLAG=FALSE
_LEN_VirQ=  0.000000000000000    
_GRDCC2LR_FLAG=FALSE
_GRDADC2_FLAG=FALSE
_RO_VGLOBAL=  0.000000000000000    
_OPT=FALSE
_FREQ=FALSE
_HESS=FALSE
_CMRCC_callName=EMPTY
_CMRCC_callCount=  0.000000000000000    
_GECCO_CIROOT=  1.000000000000000    
_SYM_CATION=  1.000000000000000    
_MON_A=FALSE
_MON_B=FALSE
GX1= 0.1056430254739783E-01
GY1=-0.3171944143221265    
GZ1=  2.579873567561895    
GX2= 0.9068690927372450    
GY2=-0.9297827390994552    
GZ2=  2.628854535085833    
GX3=-0.7329479541314235E-02
GY3= 0.3160404797216524    
GZ3=  3.461817634759683    
GX4=-0.8478186111370315    
GY4=-0.9820582906188410    
GZ4=  2.631405554565855    
GX5=-0.1537127547710867E-01
GY5= 0.5176032499424705    
GZ5=  1.300867994272356    
GX6=-0.9035590798449650    
GY6=  1.147241665943520    
GZ6=  1.300483971611901    
GX7= 0.8381923797335775    
GY7=  1.193099155355287    
GZ7=  1.295455512681674    
GX8= 0.6824587276316225E-02
GY8=-0.3324449774034448    
GZ8= 0.3082351613632156E-01
GX9=-0.8522528199067178    
GY9= -1.004799632770697    
GZ9= 0.3071642286717988E-01
GX10= 0.8938689758571332    
GY10=-0.9614532650208217    
GZ10= 0.1684277789142791E-01
GX11=-0.1443241662930663E-01
GY11= 0.4987891845536266    
GZ11= -1.244186009924815    
GX12= 0.8489659095504151    
GY12=  1.152969828944806    
GZ12= -1.277053165935822    
GX13=-0.9017419972432597    
GY13=  1.131778165224560    
GZ13= -1.263907927227505    
GX14= 0.5494123582733795E-01
GY14=-0.2886741129169260    
GZ14= -2.403149690022341    
GX15=-0.6993304999445029    
GY15=-0.8484346759034018    
GZ15= -2.444922222870165    
CX1= 0.1996363851226825E-01
CY1=-0.5994105713298929    
CZ1=  4.875254478853201    
HX2=  1.713734216161242    
HY2= -1.757034732302347    
HZ2=  4.967815092792633    
HX3=-0.1385070896913162E-01
HY3= 0.5972299509692676    
HZ3=  6.541887223095565    
HX4= -1.602144978409585    
HY4= -1.855821207687751    
HZ4=  4.972635820948458    
CX5=-0.2904750083791171E-01
CY5= 0.9781283836074888    
CZ5=  2.458284233465997    
HX6= -1.707479198325853    
HY6=  2.167972547392660    
HZ6=  2.457558535812087    
HX7=  1.583954037444785    
HY7=  2.254630643143827    
HZ7=  2.448056125605031    
CX8= 0.1289660086584340E-01
CY8=-0.6282299587999135    
CZ8= 0.5824800369563086E-01
HX9= -1.610524418563706    
HY9= -1.898796116061167    
HZ9= 0.5804562674716225E-01
HX10=  1.689167555669707    
HY10= -1.816883352516591    
HZ10= 0.3182823739270068E-01
CX11=-0.2727331474588414E-01
CY11= 0.9425749527317728    
CZ11= -2.351170806848821    
HX12=  1.604313058194098    
HY12=  2.178797206662305    
HZ12= -2.413280730204971    
HX13= -1.704045409862807    
HY13=  2.138750766105873    
HZ13= -2.388439829203422    
OX14= 0.1038238886621459    
OY14=-0.5455150126822846    
OZ14= -4.541294750621540    
HX15= -1.321543115492728    
HY15= -1.603309172093057    
HZ15= -4.620233397235860    
[Atoms] Angs
C     1    6         0.0105643025       -0.3171944143        2.5798735676
H     2    1         0.9068690927       -0.9297827391        2.6288545351
H     3    1        -0.0073294795        0.3160404797        3.4618176348
H     4    1        -0.8478186111       -0.9820582906        2.6314055546
C     5    6        -0.0153712755        0.5176032499        1.3008679943
H     6    1        -0.9035590798        1.1472416659        1.3004839716
H     7    1         0.8381923797        1.1930991554        1.2954555127
C     8    6         0.0068245873       -0.3324449774        0.0308235161
H     9    1        -0.8522528199       -1.0047996328        0.0307164229
H    10    1         0.8938689759       -0.9614532650        0.0168427779
C    11    6        -0.0144324166        0.4987891846       -1.2441860099
H    12    1         0.8489659096        1.1529698289       -1.2770531659
H    13    1        -0.9017419972        1.1317781652       -1.2639079272
O    14    8         0.0549412358       -0.2886741129       -2.4031496900
H    15    1        -0.6993304999       -0.8484346759       -2.4449222229
[GTO]
   1 0
 s    6  1.00
  0.4563240000D+04  0.1966650249D-02
  0.6820240000D+03  0.1523060193D-01
  0.1549730000D+03  0.7612690966D-01
  0.4445530000D+02  0.2608010331D+00
  0.1302900000D+02  0.6164620782D+00
  0.1827730000D+01  0.2210060280D+00
 s    3  1.00
  0.2096420000D+02  0.1146600807D+00
  0.4803310000D+01  0.9199996477D+00
  0.1459330000D+01 -0.3030682134D-02
 s    1  1.00
  0.4834560000D+00  0.1000000000D+01
 s    1  1.00
  0.1455850000D+00  0.1000000000D+01
 p    3  1.00
  0.2096420000D+02  0.4024869267D-01
  0.4803310000D+01  0.2375939567D+00
  0.1459330000D+01  0.8158538515D+00
 p    1  1.00
  0.4834560000D+00  0.1000000000D+01
 p    1  1.00
  0.1455850000D+00  0.1000000000D+01
 d    1  1.00
  0.6260000000D+00  0.1000000000D+01
  
   2 0
 s    3  1.00
  0.3386500000D+02  0.2549381454D-01
  0.5094790000D+01  0.1903731086D+00
  0.1158790000D+01  0.8521614860D+00
 s    1  1.00
  0.3258400000D+00  0.1000000000D+01
 s    1  1.00
  0.1027410000D+00  0.1000000000D+01
 p    1  1.00
  0.7500000000D+00  0.1000000000D+01
  
   3 0
 s    3  1.00
  0.3386500000D+02  0.2549381454D-01
  0.5094790000D+01  0.1903731086D+00
  0.1158790000D+01  0.8521614860D+00
 s    1  1.00
  0.3258400000D+00  0.1000000000D+01
 s    1  1.00
  0.1027410000D+00  0.1000000000D+01
 p    1  1.00
  0.7500000000D+00  0.1000000000D+01
  
   4 0
 s    3  1.00
  0.3386500000D+02  0.2549381454D-01
  0.5094790000D+01  0.1903731086D+00
  0.1158790000D+01  0.8521614860D+00
 s    1  1.00
  0.3258400000D+00  0.1000000000D+01
 s    1  1.00
  0.1027410000D+00  0.1000000000D+01
 p    1  1.00
  0.7500000000D+00  0.1000000000D+01
  
   5 0
 s    6  1.00
  0.4563240000D+04  0.1966650249D-02
  0.6820240000D+03  0.1523060193D-01
  0.1549730000D+03  0.7612690966D-01
  0.4445530000D+02  0.2608010331D+00
  0.1302900000D+02  0.6164620782D+00
  0.1827730000D+01  0.2210060280D+00
 s    3  1.00
  0.2096420000D+02  0.1146600807D+00
  0.4803310000D+01  0.9199996477D+00
  0.1459330000D+01 -0.3030682134D-02
 s    1  1.00
  0.4834560000D+00  0.1000000000D+01
 s    1  1.00
  0.1455850000D+00  0.1000000000D+01
 p    3  1.00
  0.2096420000D+02  0.4024869267D-01
  0.4803310000D+01  0.2375939567D+00
  0.1459330000D+01  0.8158538515D+00
 p    1  1.00
  0.4834560000D+00  0.1000000000D+01
 p    1  1.00
  0.1455850000D+00  0.1000000000D+01
 d    1  1.00
  0.6260000000D+00  0.1000000000D+01
  
   6 0
 s    3  1.00
  0.3386500000D+02  0.2549381454D-01
  0.5094790000D+01  0.1903731086D+00
  0.1158790000D+01  0.8521614860D+00
 s    1  1.00
  0.3258400000D+00  0.1000000000D+01
 s    1  1.00
  0.1027410000D+00  0.1000000000D+01
 p    1  1.00
  0.7500000000D+00  0.1000000000D+01
  
   7 0
 s    3  1.00
  0.3386500000D+02  0.2549381454D-01
  0.5094790000D+01  0.1903731086D+00
  0.1158790000D+01  0.8521614860D+00
 s    1  1.00
  0.3258400000D+00  0.1000000000D+01
 s    1  1.00
  0.1027410000D+00  0.1000000000D+01
 p    1  1.00
  0.7500000000D+00  0.1000000000D+01
  
   8 0
 s    6  1.00
  0.4563240000D+04  0.1966650249D-02
  0.6820240000D+03  0.1523060193D-01
  0.1549730000D+03  0.7612690966D-01
  0.4445530000D+02  0.2608010331D+00
  0.1302900000D+02  0.6164620782D+00
  0.1827730000D+01  0.2210060280D+00
 s    3  1.00
  0.2096420000D+02  0.1146600807D+00
  0.4803310000D+01  0.9199996477D+00
  0.1459330000D+01 -0.3030682134D-02
 s    1  1.00
  0.4834560000D+00  0.1000000000D+01
 s    1  1.00
  0.1455850000D+00  0.1000000000D+01
 p    3  1.00
  0.2096420000D+02  0.4024869267D-01
  0.4803310000D+01  0.2375939567D+00
  0.1459330000D+01  0.8158538515D+00
 p    1  1.00
  0.4834560000D+00  0.1000000000D+01
 p    1  1.00
  0.1455850000D+00  0.1000000000D+01
 d    1  1.00
  0.6260000000D+00  0.1000000000D+01
  
   9 0
 s    3  1.00
  0.3386500000D+02  0.2549381454D-01
  0.5094790000D+01  0.1903731086D+00
  0.1158790000D+01  0.8521614860D+00
 s    1  1.00
  0.3258400000D+00  0.1000000000D+01
 s    1  1.00
  0.1027410000D+00  0.1000000000D+01
 p    1  1.00
  0.7500000000D+00  0.1000000000D+01
  
  10 0
 s    3  1.00
  0.3386500000D+02  0.2549381454D-01
  0.5094790000D+01  0.1903731086D+00
  0.1158790000D+01  0.8521614860D+00
 s    1  1.00
  0.3258400000D+00  0.1000000000D+01
 s    1  1.00
  0.1027410000D+00  0.1000000000D+01
 p    1  1.00
  0.7500000000D+00  0.1000000000D+01
  
  11 0
 s    6  1.00
  0.4563240000D+04  0.1966650249D-02
  0.6820240000D+03  0.1523060193D-01
  0.1549730000D+03  0.7612690966D-01
  0.4445530000D+02  0.2608010331D+00
  0.1302900000D+02  0.6164620782D+00
  0.1827730000D+01  0.2210060280D+00
 s    3  1.00
  0.2096420000D+02  0.1146600807D+00
  0.4803310000D+01  0.9199996477D+00
  0.1459330000D+01 -0.3030682134D-02
 s    1  1.00
  0.4834560000D+00  0.1000000000D+01
 s    1  1.00
  0.1455850000D+00  0.1000000000D+01
 p    3  1.00
  0.2096420000D+02  0.4024869267D-01
  0.4803310000D+01  0.2375939567D+00
  0.1459330000D+01  0.8158538515D+00
 p    1  1.00
  0.4834560000D+00  0.1000000000D+01
 p    1  1.00
  0.1455850000D+00  0.1000000000D+01
 d    1  1.00
  0.6260000000D+00  0.1000000000D+01
  
  12 0
 s    3  1.00
  0.3386500000D+02  0.2549381454D-01
  0.5094790000D+01  0.1903731086D+00
  0.1158790000D+01  0.8521614860D+00
 s    1  1.00
  0.3258400000D+00  0.1000000000D+01
 s    1  1.00
  0.1027410000D+00  0.1000000000D+01
 p    1  1.00
  0.7500000000D+00  0.1000000000D+01
  
  13 0
 s    3  1.00
  0.3386500000D+02  0.2549381454D-01
  0.5094790000D+01  0.1903731086D+00
  0.1158790000D+01  0.8521614860D+00
 s    1  1.00
  0.3258400000D+00  0.1000000000D+01
 s    1  1.00
  0.1027410000D+00  0.1000000000D+01
 p    1  1.00
  0.7500000000D+00  0.1000000000D+01
  
  14 0
 s    6  1.00
  0.8588500000D+04  0.1895150083D-02
  0.1297230000D+04  0.1438590063D-01
  0.2992960000D+03  0.7073200310D-01
  0.8737710000D+02  0.2400010105D+00
  0.2567890000D+02  0.5947970261D+00
  0.3740040000D+01  0.2808020123D+00
 s    3  1.00
  0.4211750000D+02  0.1138890124D+00
  0.9628370000D+01  0.9208111006D+00
  0.2853320000D+01 -0.3274470358D-02
 s    1  1.00
  0.9056610000D+00  0.1000000000D+01
 s    1  1.00
  0.2556110000D+00  0.1000000000D+01
 p    3  1.00
  0.4211750000D+02  0.3651139738D-01
  0.9628370000D+01  0.2371529830D+00
  0.2853320000D+01  0.8197019412D+00
 p    1  1.00
  0.9056610000D+00  0.1000000000D+01
 p    1  1.00
  0.2556110000D+00  0.1000000000D+01
 d    1  1.00
  0.1292000000D+01  0.1000000000D+01
  
  15 0
 s    3  1.00
  0.3386500000D+02  0.2549381454D-01
  0.5094790000D+01  0.1903731086D+00
  0.1158790000D+01  0.8521614860D+00
 s    1  1.00
  0.3258400000D+00  0.1000000000D+01
 s    1  1.00
  0.1027410000D+00  0.1000000000D+01
 p    1  1.00
  0.7500000000D+00  0.1000000000D+01


[MO]
 Sym=      1.1
 Ene=     -20.5401
 Spin= Alpha
 Occup=    2.000000
1 0.000000120877785
2 -0.000000172807755
3 -0.000001903329629
4 0.000130100310422
5 0.000001249717037
6 -0.000000143580119
7 0.000000187943626
8 -0.000005432367426
9 -0.000000340012882
10 -0.000001166373464
11 -0.000014088537897
12 0.000067945212505
13 -0.000017388186349
14 -0.000000992015619
15 0.000001809784072
16 -0.000000817768453
17 -0.000000930959932
18 0.000001215065962
19 -0.000001360729802
20 0.000000203717354
21 0.000001562764233
22 0.000009330730077
23 -0.000002120307834
24 -0.000003088054957
25 -0.000000539630674
26 0.000001946108932
27 -0.000021615288899
28 -0.000012453329912
29 0.000001378160138
30 0.000002284531493
31 0.000000381675228
32 0.000002031861046
33 -0.000010836179329
34 0.000014264700415
35 0.000000699412027
36 -0.000004569432992
37 -0.000001324885264
38 -0.000000158636004
39 -0.000000145191929
40 -0.000018390470672
41 0.000122166160840
42 -0.000001798786339
43 -0.000000465889045
44 -0.000003931823986
45 0.000007836059181
46 0.000005180303494
47 0.000015906508608
48 0.000058150809685
49 0.000057616553311
50 -0.000238274812469
51 0.000000482030840
52 -0.000001051686873
53 0.000000569656034
54 0.000000223782821
55 -0.000004472558587
56 0.000010019420783
57 0.000006134780898
58 -0.000043879831459
59 0.000031882657844
60 -0.000007875768230
61 -0.000004069994421
62 0.000009609849314
63 0.000009237016694
64 -0.000080536769520
65 0.000001038871857
66 0.000011739623193
67 0.000002272524718
68 0.000008757362286
69 0.000001595846826
70 -0.000001017040409
71 0.000020511314364
72 -0.000224557479978
73 0.000000811255528
74 -0.000002555923907
75 0.000002992852256
76 -0.000002788947373
77 -0.000001920433641
78 0.000004039049625
79 -0.000150021756220
80 -0.000102865482582
81 0.000058690662535
82 0.000009639208512
83 0.000010184544127
84 -0.000019823752639
85 -0.000002458092879
86 0.000006851175023
87 -0.000012223481783
88 0.000009442653849
89 -0.000061414859325
90 -0.000074819372818
91 -0.000011686897147
92 -0.000012326364661
93 0.000005129167817
94 0.000003318115748
95 0.000005187706572
96 0.000027089002034
97 0.000009037206222
98 -0.000002503289774
99 0.000010711991881
100 -0.000002760387415
101 -0.000030277787552
102 0.000077895808643
103 0.000710762211058
104 0.000014118299898
105 -0.000014207439049
106 -0.000030199845166
107 -0.000028711831764
108 -0.000156760125245
109 -0.000191935539704
110 0.000245805281650
111 -0.000217104179706
112 -0.000326078738753
113 -0.000079138069767
114 0.000008816720071
115 0.000070321349696
116 0.000006439991367
117 0.000020883233913
118 0.000115703348208
119 0.000026538210131
120 -0.000134603191585
121 -0.000069675811084
122 -0.000021241958015
123 0.000005259576290
124 0.000016939174969
125 -0.000000817464340
126 0.000018853288222
127 0.000007298557910
128 0.000008957137463
129 0.000001897810674
130 0.000041393179690
131 0.55144186374895
132 0.47166136244118
133 0.005683735018666
134 -0.000988791552941
135 -0.001294888131036
136 -0.000082166544197
137 0.001141244695112
138 0.000487901841957
139 0.000043289093365
140 -0.000406000435019
141 -0.000159937555493
142 -0.000211458845765
143 -0.000164059032038
144 0.000028398259254
145 0.000005569922243
146 -0.000033968181497
147 -0.000081088024458
148 0.000017916142189
149 -0.000140402402882
150 0.000219261196238
151 0.000041111003973
152 0.000068952123580
153 0.000037152480990
154 0.000065023638598
155 0.000055420095347
 Sym=      2.1
 Ene=     -11.2666
 Spin= Alpha
 Occup=    2.000000
1 0.000011026341810
2 0.000009955193405
3 -0.000031876276351
4 0.000387093757050
5 -0.000000350032337
6 0.000000826267150
7 0.000000004736114
8 0.000001583675340
9 -0.000004159658736
10 0.000000312667906
11 0.000007951817688
12 0.000041988525883
13 -0.000156435324833
14 -0.000001358481412
15 -0.000003874812527
16 0.000005233293939
17 0.000000411565977
18 -0.000000645790142
19 0.000000467961603
20 0.000005576100408
21 -0.000057048415919
22 -0.000001903834592
23 0.000007420920653
24 -0.000003978541313
25 0.000002785764850
26 0.000002439750252
27 -0.000032181854071
28 0.000032525926229
29 -0.000000956959648
30 0.000003158694716
31 0.000004368997617
32 0.000004922753137
33 -0.000051269581483
34 0.000001985378685
35 -0.000006665003658
36 -0.000003631995769
37 0.000003196091605
38 -0.000035721820202
39 -0.000028056913479
40 -0.000030394313786
41 0.000003996621745
42 0.000000354106559
43 -0.000000139594569
44 0.000004882159540
45 -0.000002366114343
46 -0.000004836842974
47 0.000008243779091
48 -0.000033268019363
49 0.000170737346736
50 -0.000278647375471
51 -0.000003049752392
52 -0.000010832717519
53 0.000013882469911
54 -0.000000900594742
55 0.000000775900784
56 0.000005206014706
57 0.000004696090013
58 -0.000076116556366
59 -0.000046626700596
60 -0.000010943053355
61 -0.000001610533831
62 0.000017344153854
63 0.000002617112050
64 -0.000055544040569
65 -0.000036906929388
66 0.000009241163643
67 -0.000004149021213
68 0.000017720283720
69 0.003549467093184
70 0.002886865731307
71 0.000256453961288
72 0.000579091181231
73 -0.000002913511104
74 0.000088179548009
75 -0.000105970110194
76 -0.000002621585514
77 0.000121219883103
78 -0.000244096665779
79 0.000046135395174
80 0.000205523287017
81 -0.000355357479909
82 -0.000058609957733
83 -0.000035183073565
84 0.000093793031298
85 -0.000003415947698
86 0.000001552507754
87 -0.000086281393274
88 -0.000008304682498
89 0.000036735895977
90 0.000033051747783
91 0.000012387873133
92 0.000016824315591
93 -0.000001931692259
94 -0.000006255133559
95 0.000007002728712
96 0.000010537917551
97 -0.000011509022999
98 0.000012414351030
99 -0.000003491041317
100 0.56345338665070
101 0.46654935162366
102 0.004145230437669
103 -0.002169073545664
104 -0.000021170877370
105 -0.000570751249494
106 -0.000812867342369
107 0.000013675388899
108 0.000448282166453
109 0.000586146450775
110 -0.000072016926736
111 0.000022075282956
112 -0.000424774197568
113 0.000170838636452
114 0.000000890026873
115 -0.000171728663324
116 0.000036389813448
117 0.000007720140066
118 -0.000168964968357
119 0.000319351876260
120 0.000283880743917
121 0.000300390816956
122 0.000000860983582
123 -0.000033885808360
124 -0.000009625385378
125 0.000322750289449
126 0.000276015259445
127 0.000259009684378
128 0.000012273567854
129 -0.000038839051221
130 -0.000010257378710
131 -0.000072425031320
132 -0.000128291041296
133 0.000279722165838
134 0.000448756116162
135 -0.000012815877646
136 0.000056963586333
137 0.000093499672556
138 -0.000014481603645
139 0.000324036397318
140 0.000445837733030
141 0.000008689457315
142 0.000090300454295
143 0.000206140456587
144 -0.000118645997566
145 -0.000015613457169
146 0.000134259454735
147 -0.000032708018480
148 -0.000028619522999
149 0.000174201348309
150 -0.000019369468489
151 0.000059449001037
152 -0.000027027633148
153 0.000038439274875
154 0.000039762689914
155 0.000005343058699
 Sym=      3.1
 Ene=     -11.2220
 Spin= Alpha
 Occup=    2.000000
1 0.019312815054896
2 0.015935798415491
3 0.000364338476696
4 0.000836304079198
5 -0.000002129797262
6 0.000067457137099
7 -0.000095123331506
8 -0.000006573254102
9 0.000187418831290
10 -0.000300577664452
11 -0.000005248788359
12 0.000200452301365
13 -0.000291755734437
14 -0.000076014833254
15 -0.000017909967357
16 0.000093924800611
17 -0.000002260889950
18 0.000003605057917
19 -0.000106085021720
20 0.000011615895877
21 -0.000022161119372
22 0.000004754647872
23 -0.000012469687984
24 0.000013370973481
25 -0.000009075943864
26 0.000019449890317
27 -0.000062940057484
28 -0.000031199942463
29 0.000000084298595
30 -0.000003583316661
31 -0.000000931005294
32 0.000011706831569
33 -0.000022761246852
34 0.000007067127005
35 0.000011482915182
36 0.000013896509390
37 -0.000008918436224
38 0.56198644805852
39 0.46538187819469
40 0.004481364214632
41 -0.002640731420823
42 -0.000005988940971
43 -0.000040857068322
44 -0.000001290064039
45 0.000003756251420
46 0.000081032727784
47 -0.000014223267944
48 -0.000009835966710
49 0.000325501934374
50 0.000031480583007
51 0.000077813689701
52 0.000007032507429
53 -0.000084846197130
54 0.000004208262679
55 -0.000000933171019
56 -0.000000431770969
57 0.000330712702784
58 0.000325029859555
59 0.000235495712486
60 0.000020659669499
61 -0.000043860313507
62 -0.000001160247837
63 0.000329912210138
64 0.000321508480350
65 0.000235091924390
66 -0.000016619748488
67 -0.000043003687211
68 -0.000000650389647
69 0.034377037273847
70 0.028413247785232
71 0.000468808273301
72 0.000806563193380
73 -0.000006614025515
74 0.000072303990022
75 0.000099207496438
76 -0.000000065488009
77 0.000176022162045
78 0.000295436859201
79 -0.000016702060095
80 0.000267987232319
81 0.000329294297369
82 -0.000076332333137
83 -0.000018786768225
84 0.000095119101362
85 -0.000003910873818
86 -0.000003350124266
87 0.000118013299273
88 0.000016673689674
89 0.000011918001204
90 0.000023380677540
91 0.000018438303127
92 0.000016995739181
93 0.000004858102747
94 0.000016474892878
95 0.000010393655696
96 0.000037328979259
97 -0.000017455409566
98 0.000014731227665
99 0.000004795098210
100 -0.000185057083786
101 -0.000154318419017
102 -0.000013294126425
103 -0.000013002436447
104 0.000000091533553