
 Working directory              : /tmp/zwa/molpro.bOysO7Miww/
 Global scratch directory       : /tmp/zwa/molpro.bOysO7Miww/
 Wavefunction directory         : /home/zwa/wfu/
 Main file repository           : /tmp/zwa/molpro.bOysO7Miww/

 id        : liedlgroup

 Nodes     nprocs
 rh2-c724     4
 GA implementation: MPI file
 GA implementation (serial work in mppx): MPI file

 Using customized tuning parameters: mindgm=1; mindgv=20; mindgc=4; mindgr=1; noblas=0; minvec=7
 default implementation of scratch files=sf  


 Variables initialized (1025), CPU time= 0.02 sec
 
  memory, 1000, m                                                                  ! Memory Requirements
  orient,mass
  geometry = {
  C ,                -2.00102338,    1.96959142  ,  0.50759355
  H ,                -1.64436896 ,   0.96078141 ,   0.50759355
  H ,                -1.64435054,    2.47398961 ,   1.38124505
  H ,                -3.07102338 ,   1.96960460 ,   0.50759355
  C ,                -1.48768116  ,  2.69554769 ,  -0.74981142
  H ,                -1.84593209  ,  3.70379137 ,  -0.75079016
  H ,                -0.41768293 ,   2.69722875,   -0.74883364
  C  ,               -1.99872316 ,   1.96796708 ,  -2.00721451
  H  ,               -3.06872099 ,   1.96595984 ,  -2.00800337
  H ,                -1.64016520 ,   0.95983239  , -2.00642389
  C ,                -1.48582343 ,   2.69423587 ,  -3.26461958
  H  ,               -0.41582577 ,   2.69631478 ,  -3.26378835
  H ,                -1.84444886 ,   3.70234653  , -3.26545188
  O  ,               -1.96027202 ,   2.01856164  , -4.43220806
  H   ,              -3.65098710 ,   2.31816399 ,  -4.97742226
  }
 
  mass, iso
  basis=6-311g(d,p)
 
  {hf
  start,atden}
 
  optg
  {frequencies, symm=auto, print=0,analytical}
  put,molden,butanolgauche.molden
 
 Commands initialized (840), CPU time= 0.01 sec, 684 directives.
 Default parameters read. Elapsed time= 0.22 sec

 Checking input...
 Passed
1


                                         ***  PROGRAM SYSTEM MOLPRO  ***
                                       Copyright, TTI GmbH Stuttgart, 2015
                                    Version 2022.3 linked Wed Nov 30 12:40:34 2022


 **********************************************************************************************************************************
 LABEL *                                                                                 
  (8 PROC) 64 bit mpp version                                                            DATE: 06-Aug-25          TIME: 09:23:45  
 **********************************************************************************************************************************

 SHA1:             e31ec9a5ea85254ab76f59d122cbdd51c71cf98b
 **********************************************************************************************************************************

 Memory per process:      1000 MW
 Total memory per node:   4000 MW

 GA preallocation disabled
 GA check disabled

 Variable memory set to 1000.0 MW

 ZCENTRE=MASS


 Geometry recognized as XYZ



 Using masses of most abundant isotopes

 **********************************************************************************************************************************
 SETTING BASIS          =    6-311G(D,P)


 Recomputing integrals since basis changed


 Using spherical harmonics

 Library entry C      S 6-311G               selected for orbital group  1
 Library entry C      P 6-311G               selected for orbital group  1
 Library entry C      D 6-311G*              selected for orbital group  1
 Library entry H      S 6-311G               selected for orbital group  2
 Library entry H      P 6-311G**             selected for orbital group  2
 Library entry O      S 6-311G               selected for orbital group  9
 Library entry O      P 6-311G               selected for orbital group  9
 Library entry O      D 6-311G*              selected for orbital group  9


 PROGRAM * SEWARD (Integral evaluation for generally contracted gaussian basis sets)     Author: Roland Lindh, 1990

 Geometry written to block  1 of record 700

 Orientation using atomic masses  
 Molecule type: Asymmetric top
 Rotational constants:       1.8778142      1.9764077     16.8569837 GHz

 Point group  C1  



 ATOMIC COORDINATES

 NR  ATOM    CHARGE       X              Y              Z

   1  C       6.00    0.025635880   -0.654164611    4.832800966
   2  H       1.00    1.802724578   -1.618244156    4.864715695
   3  H       1.00   -0.142464523    0.504170907    6.481592394
   4  H       1.00   -1.475502539   -2.008529638    4.804677288
   5  C       6.00   -0.129586276    1.015524326    2.454317778
   6  H       1.00   -1.908164260    1.976789382    2.420524499
   7  H       1.00    1.369371744    2.372263415    2.484250983
   8  C       6.00    0.117635306   -0.650980419    0.081391153
   9  H       1.00   -1.380915860   -2.008176878    0.051822194
  10  H       1.00    1.896512578   -1.611703721    0.114834630
  11  C       6.00   -0.038603144    1.018586940   -2.297110837
  12  H       1.00    1.459855618    2.375883705   -2.267463430
  13  H       1.00   -1.817543222    1.979191165   -2.330634302
  14  O       8.00    0.191167159   -0.528856643   -4.500538709
  15  H       1.00   -2.541137724   -2.247983996   -5.581804745

 Bond lengths in Bohr (Angstrom)

 1-2  2.022006964  1-3  2.022006947  1-4  2.022006954  1-5  2.910178232  5-6  2.022006958
     ( 1.070000005)     ( 1.069999996)     ( 1.070000000)     ( 1.540000000)     ( 1.070000002)

  5- 7  2.022006948   5- 8  2.910178232   8- 9  2.022006960   8-10  2.022006944   8-11  2.910178231
       ( 1.069999997)       ( 1.540000000)       ( 1.070000004)       ( 1.069999995)       ( 1.539999999)

 11-12  2.022006958  11-13  2.022006949  11-14  2.702308350
       ( 1.070000002)       ( 1.069999997)       ( 1.429999996)

 Bond angles

  1-5-6  109.47120213   1-5-7  109.47120264   1-5-8  109.47123142   2-1-3  109.47120281

  2-1-4  109.47123073   2-1-5  109.47120260   3-1-4  109.47121844   3-1-5  109.47125078

  4- 1- 5  109.47121845   5- 8- 9  109.47120243   5- 8-10  109.47123109   5- 8-11  109.47120255

  6- 5- 7  109.47125071   6- 5- 8  109.47121847   7- 5- 8  109.47121844   8-11-12  109.47120211

  8-11-13  109.47123155   8-11-14  109.47120272   9- 8-10  109.47121861   9- 8-11  109.47125047

 10- 8-11  109.47121866  12-11-13  109.47121841  12-11-14  109.47125036  13-11-14  109.47121864

 NUCLEAR CHARGE:                   42
 NUMBER OF PRIMITIVE AOS:         240
 NUMBER OF SYMMETRY AOS:          235
 NUMBER OF CONTRACTIONS:          150   (  150A   )
 NUMBER OF INNER CORE ORBITALS:     0   (    0A   )
 NUMBER OF OUTER CORE ORBITALS:     5   (    5A   )
 NUMBER OF VALENCE ORBITALS:       30   (   30A   )


 NUCLEAR REPULSION ENERGY  182.79083102


 Eigenvalues of metric

         1 0.164E-02 0.414E-02 0.549E-02 0.654E-02 0.130E-01 0.173E-01 0.183E-01 0.193E-01


 Contracted 2-electron integrals neglected if value below      1.0D-11
 AO integral compression algorithm  1   Integral accuracy      1.0D-11

     195.035 MB (compressed) written to integral file ( 35.7%)

     Node minimum: 46.137 MB, node maximum: 51.905 MB


 NUMBER OF SORTED TWO-ELECTRON INTEGRALS:   16034784.     BUFFER LENGTH:  32768
 NUMBER OF SEGMENTS:   2  SEGMENT LENGTH:   15989512      RECORD LENGTH: 524288

 Memory used in sort:      16.55 MW

 SORT1 READ    68012571. AND WROTE    11655622. INTEGRALS IN     35 RECORDS. CPU TIME:     1.82 SEC, REAL TIME:     2.22 SEC
 SORT2 READ    46502284. AND WROTE    64133475. INTEGRALS IN    732 RECORDS. CPU TIME:     0.43 SEC, REAL TIME:     0.54 SEC

 Node minimum:    16029122.  Node maximum:    16037616. integrals

 OPERATOR DM      FOR CENTER  0  COORDINATES:    0.000000    0.000000    0.000000


 **********************************************************************************************************************************
 DATASETS  * FILE   NREC   LENGTH (MB)   RECORD NAMES
              1      18       29.62       500      610      700      900      950      970     1000      129      960     1100   
                                          VAR    BASINP    GEOM    SYMINP    ZMAT    AOBASIS   BASIS     P2S    ABASIS      S 
                                         1400     1410     1200     1210     1080     1600     1650     1700   
                                           T        V       H0       H01     AOSYM     SMH    MOLCAS    OPER   

 PROGRAMS   *        TOTAL       INT
 CPU TIMES  *         6.46      6.12
 REAL TIME  *         6.25 SEC
 DISK USED  *        30.14 MB (local),      839.35 MB (total)
 GA USED    *         0.00 MB       (max)       0.00 MB       (current)
 **********************************************************************************************************************************


 Program * Restricted Hartree-Fock

 Orbital guess generated from atomic densities.

 Initial occupancy:  21

 NELEC=   42   SYM=1   MS2= 0   THRE=1.0D-08   THRD=1.0D-06   THRG=1.0D-06  HFMA2=F  DIIS_START=2   DIIS_MAX=10   DIIS_INCORE=F

 Level shifts:    0.00 (CLOSED)    0.00 (OPEN)    0.30 (GAP_MIN)

 ITER           ETOT              DE          GRAD        DDIFF     DIIS  NEXP   TIME(IT)  TIME(TOT)  DIAG
   1     -231.85475218    -231.85475218     0.00D+00     0.33D-01     0     0      66.14    126.42    start
   2     -231.96065138      -0.10589921     0.61D-02     0.55D-02     1     0      68.57    194.99    diag
   3     -232.00383331      -0.04318192     0.48D-02     0.26D-02     2     0      69.09    264.08    diag
   4     -232.01111071      -0.00727740     0.92D-03     0.13D-02     3     0      69.32    333.40    diag
   5     -232.01244429      -0.00133358     0.63D-03     0.55D-03     4     0      68.21    401.61    diag
   6     -232.01265124      -0.00020695     0.18D-03     0.25D-03     5     0      68.09    469.70    diag
   7     -232.01268524      -0.00003401     0.54D-04     0.91D-04     6     0      69.88    539.58    diag
   8     -232.01269188      -0.00000664     0.25D-04     0.41D-04     7     0      68.71    608.29    fixocc
   9     -232.01269287      -0.00000099     0.83D-05     0.12D-04     8     0      57.75    666.04    diag
  10     -232.01269312      -0.00000025     0.41D-05     0.70D-05     9     0      68.73    734.77    diag/orth
  11     -232.01269314      -0.00000002     0.12D-05     0.24D-05     9     0      68.65    803.42    diag
  12     -232.01269314      -0.00000000     0.27D-06     0.46D-06     9     0      68.93    872.35    diag
  13     -232.01269314      -0.00000000     0.92D-07     0.11D-06     0     0      69.22    941.57    diag

 Final occupancy:  21

 !RHF STATE 1.1 Energy               -232.012693141860
  RHF One-electron energy            -677.013822586981
  RHF Two-electron energy             262.210298424583
  RHF Kinetic energy                  231.773139073573
  RHF Nuclear energy                  182.790831020538
  RHF Virial quotient                  -1.001033571316

 !RHF STATE 1.1 Dipole moment          -0.53432122     0.11430012     0.41767724
 Dipole moment /Debye                  -1.35810909     0.29052193     1.06162965

 Orbital energies:

           1.1          2.1          3.1          4.1          5.1          6.1          7.1          8.1          9.1         10.1
    -20.588576   -11.269021   -11.214675   -11.208985   -11.204971    -1.294161    -1.070392    -0.966052    -0.848676    -0.804485

          11.1         12.1         13.1         14.1         15.1         16.1         17.1         18.1         19.1         20.1
     -0.665647    -0.609284    -0.605248    -0.583418    -0.552753    -0.525684    -0.497791    -0.484728    -0.478300    -0.421171

          21.1         22.1         23.1
     -0.402611     0.005620     0.157914


 HOMO     21.1    -0.402611 =     -10.9556eV
 LUMO     22.1     0.005620 =       0.1529eV
 LUMO-HOMO         0.408231 =      11.1085eV

 Orbitals saved in record  2100.2


 **********************************************************************************************************************************
 DATASETS  * FILE   NREC   LENGTH (MB)   RECORD NAMES
              1      18       29.62       500      610      700      900      950      970     1000      129      960     1100   
                                          VAR    BASINP    GEOM    SYMINP    ZMAT    AOBASIS   BASIS     P2S    ABASIS      S 
                                         1400     1410     1200     1210     1080     1600     1650     1700   
                                           T        V       H0       H01     AOSYM     SMH    MOLCAS    OPER   

              2       4        0.94       700     1000      520     2100   
                                         GEOM     BASIS   MCVARS     RHF  

 PROGRAMS   *        TOTAL    HF-SCF       INT
 CPU TIMES  *       948.14    941.67      6.12
 REAL TIME  *       471.03 SEC
 DISK USED  *        32.18 MB (local),      847.49 MB (total)
 GA USED    *         0.00 MB       (max)       0.00 MB       (current)
 **********************************************************************************************************************************


 PROGRAM * OPT (Geometry optimization)     Authors: F. Eckert and H.-J. Werner


 BFGS update of hessian

 *** Long output written to logfile /home/zwa/Overlap_Integral_Project/overlap_integral_gaussian/molpro_files/butanol/butanolgauche.log ***


 Geometry optimization using default procedure for command HF-SCF

 Geometry written to block  1 of record 700

 Entering BMAT geometry-optimization, modelhes=F

 Too few internal coordinates
 BMAT failed, using natural internal coordinates

 Making model hessian for cartesian coordinates

 Entering Rational Function Geometry Optimization

 ITER.   ENERGY(OLD)    ENERGY(NEW)      DE          GRADMAX     GRADNORM    GRADRMS     STEPMAX     STEPLEN     STEPRMS   CPU-time
   1  -232.01269314  -232.05574238    -0.04304924  0.08597198  0.15675170  0.00401927  0.20679202  0.30000000  0.07745967    920.56
   2  -232.05574238  -232.10562241    -0.04988003  0.07856508  0.16629395  0.00426395  0.14543531  0.30000000  0.07745967   1702.66
   3  -232.10562241  -232.15874658    -0.05312417  0.11458001  0.18344917  0.00470382  0.19899920  0.30000000  0.07745967   2411.79
   4  -232.15874658  -232.19614145    -0.03739486  0.09778076  0.17131720  0.00439275  0.17519029  0.30000000  0.07745967   3113.96
   5  -232.19614145  -232.20840062    -0.01225918  0.03605653  0.07479256  0.00191776  0.15455263  0.30000000  0.07745967   3829.15
   6  -232.20840062  -232.21154120    -0.00314057  0.05034579  0.05894306  0.00151136  0.13683964  0.30000000  0.07745967   4540.18
   7  -232.21154120  -232.21302965    -0.00148845  0.02969458  0.05172309  0.00132623  0.06859520  0.15438165  0.03986117   5195.52
   8  -232.21302965  -232.21320934    -0.00017969  0.01079838  0.01261835  0.00032355  0.02924384  0.06865624  0.01772696   5768.84
   9  -232.21320934  -232.21332150    -0.00011216  0.00411979  0.00541884  0.00013894  0.04704655  0.08769221  0.02264203   6415.84
  10  -232.21332150  -232.21340212    -0.00008062  0.00483463  0.00589153  0.00015106  0.05789793  0.09312686  0.02404525   6998.56
  11  -232.21340212  -232.21349539    -0.00009326  0.00754206  0.00798779  0.00020482  0.10013486  0.14465164  0.03734889   7586.17
  12  -232.21349539  -232.21354040    -0.00004501  0.00662414  0.00688800  0.00017662  0.06170702  0.08831197  0.02280205   8154.74
  13  -232.21354040  -232.21355606    -0.00001567  0.00238327  0.00263399  0.00006754  0.03623373  0.07637843  0.01972083   8865.95
  14  -232.21355606  -232.21355793    -0.00000187  0.00189326  0.00242714  0.00006223  0.02392802  0.02654616  0.00685419   9504.64
  15  -232.21355793  -232.21356177    -0.00000385  0.00210455  0.00244960  0.00006281  0.00627310  0.01030566  0.00266091  10127.30
  16  -232.21356177  -232.21356336    -0.00000159  0.00031207  0.00047437  0.00001216  0.00765604  0.01285186  0.00331834  10754.53
  17  -232.21356336  -232.21356545    -0.00000209  0.00040100  0.00067105  0.00001721  0.02355374  0.02958650  0.00763920  11380.09
  18  -232.21356545  -232.21356635    -0.00000090  0.00078427  0.00090082  0.00002310  0.01627893  0.02079532  0.00536933  12004.74
  19  -232.21356635  -232.21356659    -0.00000024  0.00037322  0.00040246  0.00001032  0.00539010  0.00768655  0.00198466  12562.95
  20  -232.21356659  -232.21356678    -0.00000018  0.00008679  0.00012285  0.00000315  0.00624000  0.00675664  0.00174456  12902.88

 END OF GEOMETRY OPTIMIZATION.

 Geometry written to block  1 of record 700

 Recomputing wavefunction for reoriented structure

 Current geometry (xyz format, in Angstrom)

   15
 HF-SCF000/6-311G(D,P)  ENERGY=-232.21356678
 C          0.0105643025       -0.3171944143        2.5798735676
 H          0.9068690927       -0.9297827391        2.6288545351
 H         -0.0073294795        0.3160404797        3.4618176348
 H         -0.8478186111       -0.9820582906        2.6314055546
 C         -0.0153712755        0.5176032499        1.3008679943
 H         -0.9035590798        1.1472416659        1.3004839716
 H          0.8381923797        1.1930991554        1.2954555127
 C          0.0068245873       -0.3324449774        0.0308235161
 H         -0.8522528199       -1.0047996328        0.0307164229
 H          0.8938689759       -0.9614532650        0.0168427779
 C         -0.0144324166        0.4987891846       -1.2441860099
 H          0.8489659096        1.1529698289       -1.2770531659
 H         -0.9017419972        1.1317781652       -1.2639079272
 O          0.0549412358       -0.2886741129       -2.4031496900
 H         -0.6993304999       -0.8484346759       -2.4449222229

 **********************************************************************************************************************************


 **********************************************************************************************************************************
 DATASETS  * FILE   NREC   LENGTH (MB)   RECORD NAMES
              1      18       29.62       500      610      700      900      950      970     1000      129      960     1100   
                                          VAR    BASINP    GEOM    SYMINP    ZMAT    AOBASIS   BASIS     P2S    ABASIS      S 
                                         1400     1410     1200     1210     1080     1600     1650     1700   
                                           T        V       H0       H01     AOSYM     SMH    MOLCAS    OPER   

              2       4        0.94       700     1000      520     2100   
                                         GEOM     BASIS   MCVARS     RHF  

 PROGRAMS   *        TOTAL      OPTG    HF-SCF       INT
 CPU TIMES  *     14074.22  13126.08    941.67      6.12
 REAL TIME  *      6830.91 SEC
 DISK USED  *        32.18 MB (local),      858.24 MB (total)
 SF USED    *         0.11 MB
 GA USED    *         0.00 MB       (max)       0.00 MB       (current)
 **********************************************************************************************************************************


 PROGRAM * HESSIAN

 PROGRAM * MCKINLEY (Hessian of the energy)     Author: A. Bernhardsson, R. Lindh

 Orbitals from record         2100.2

 Number of closed-shell orbitals: 21 ( 21 )
 Number of occupied orbitals:     21 ( 21 )

 Number of electrons= 42     Singlet     Space symmetry=1      Wavefunction type: CLOSED          


 McKinley needed   1170.32 seconds of CPU time

 Entering CPHF calculation

 CPHF needed 370 iterations for 45 perturbations.  Total CPU time:  539.91 sec


 HF-SCF hessian saved to record  5300.2

 PROGRAM * FREQUENCIES (Calculation of harmonic vibrational spectra for HF-SCF)


 Permanent Dipole Moment [debye]
 1-3    0.000000    0.000000    0.000000

 Dipole Moment Norm    0.0000000 [debye]

 Dipole Moment Derivatives [debye/ang]
              1             2             3             4             5             6             7             8
    1    0.00000000    0.00000000    0.00000000    0.00000000    0.00000000    0.00000000    0.00000000    0.00000000
    2    0.00000000    0.00000000    0.00000000    0.00000000    0.00000000    0.00000000    0.00000000    0.00000000
    3    0.00000000    0.00000000    0.00000000    0.00000000    0.00000000    0.00000000    0.00000000    0.00000000
              9            10            11            12            13            14            15            16
    1    0.00000000    0.00000000    0.00000000    0.00000000    0.00000000    0.00000000    0.00000000    0.00000000
    2    0.00000000    0.00000000    0.00000000    0.00000000    0.00000000    0.00000000    0.00000000    0.00000000
    3    0.00000000    0.00000000    0.00000000    0.00000000    0.00000000    0.00000000    0.00000000    0.00000000
             17            18            19            20            21            22            23            24
    1    0.00000000    0.00000000    0.00000000    0.00000000    0.00000000    0.00000000    0.00000000    0.00000000
    2    0.00000000    0.00000000    0.00000000    0.00000000    0.00000000    0.00000000    0.00000000    0.00000000
    3    0.00000000    0.00000000    0.00000000    0.00000000    0.00000000    0.00000000    0.00000000    0.00000000
             25            26            27            28            29            30            31            32
    1    0.00000000    0.00000000    0.00000000    0.00000000    0.00000000    0.00000000    0.00000000    0.00000000
    2    0.00000000    0.00000000    0.00000000    0.00000000    0.00000000    0.00000000    0.00000000    0.00000000
    3    0.00000000    0.00000000    0.00000000    0.00000000    0.00000000    0.00000000    0.00000000    0.00000000
             33            34            35            36            37            38            39            40
    1    0.00000000    0.00000000    0.00000000    0.00000000    0.00000000    0.00000000    0.00000000    0.00000000
    2    0.00000000    0.00000000    0.00000000    0.00000000    0.00000000    0.00000000    0.00000000    0.00000000
    3    0.00000000    0.00000000    0.00000000    0.00000000    0.00000000    0.00000000    0.00000000    0.00000000
             41            42            43            44            45
    1    0.00000000    0.00000000    0.00000000    0.00000000    0.00000000
    2    0.00000000    0.00000000    0.00000000    0.00000000    0.00000000
    3    0.00000000    0.00000000    0.00000000    0.00000000    0.00000000

 Projecting out rotations and translations

 Force Constants (Second Derivatives of the Energy) in [a.u.]
                             CX1         CY1         CZ1         HX2         HY2     
           CX1           0.6250419
           CY1           0.0003439   0.6013251
           CZ1          -0.0014658   0.0459597   0.5669428
           HX2          -0.2468392   0.1273987  -0.0086004   0.2651287
           HY2           0.1262554  -0.1424469   0.0053020  -0.1419507   0.1513291
           HZ2          -0.0065353   0.0038663  -0.0573842   0.0081315  -0.0083597
           HX3          -0.0573396   0.0027949   0.0038141   0.0010129   0.0182452
           HY3           0.0027833  -0.1552655  -0.1343466  -0.0006687  -0.0121050
           HZ3           0.0037178  -0.1312765  -0.2365460   0.0011408   0.0011915
           HX4          -0.2308777  -0.1322296   0.0086820  -0.0235197  -0.0189840
           HY4          -0.1311595  -0.1575347   0.0061781   0.0165906   0.0151433
           HZ4           0.0067831   0.0046652  -0.0574382  -0.0003658  -0.0006599
           CX5          -0.0932153   0.0012965  -0.0019516   0.0008223   0.0182929
           CY5           0.0013411  -0.1362006   0.0597682  -0.0008301  -0.0117122
           CZ5          -0.0019768   0.0626721  -0.1832575   0.0004979  -0.0001949
           HX6           0.0008120  -0.0009431   0.0003697   0.0017969  -0.0004817
           HY6           0.0180590  -0.0116601  -0.0000283  -0.0002327  -0.0016460
           HZ6          -0.0285881   0.0190651  -0.0002521   0.0002556   0.0043336
           HX7           0.0019066   0.0017927  -0.0003527   0.0010014  -0.0003269
           HY7          -0.0172827  -0.0125302   0.0000608   0.0003011   0.0000549
           HZ7           0.0274734   0.0205812  -0.0003972  -0.0006442  -0.0007785
           CX8           0.0003068  -0.0006206  -0.0007085  -0.0000936  -0.0002878
           CY8          -0.0004943   0.0178857   0.0185657   0.0000654   0.0003502
           CZ8           0.0005388  -0.0197828  -0.0319311   0.0002018  -0.0012518
           HX9          -0.0000758  -0.0001076   0.0001573  -0.0000275  -0.0000713
           HY9           0.0002900   0.0004957   0.0012081   0.0000818   0.0000730
           HZ9          -0.0009742  -0.0003496   0.0019004   0.0000142   0.0000555
           HX10         -0.0000419   0.0000081  -0.0000998   0.0003998  -0.0003344
           HY10         -0.0003152   0.0004942   0.0011197  -0.0003416   0.0007773
           HZ10          0.0009775  -0.0002347   0.0018882  -0.0005527   0.0004521
           CX11         -0.0010492   0.0000554   0.0000866   0.0003553  -0.0001670
           CY11          0.0001188  -0.0057509  -0.0048336  -0.0003036   0.0000530
           CZ11         -0.0000062  -0.0018357  -0.0013880  -0.0000598  -0.0001440
           HX12          0.0003375   0.0003826   0.0002536  -0.0000257  -0.0000063
           HY12          0.0003429   0.0002514   0.0001714  -0.0000068  -0.0000578
           HZ12         -0.0000906   0.0000655  -0.0000769   0.0000071   0.0000297
           HX13          0.0003781  -0.0004320  -0.0002958  -0.0000089  -0.0000970
           HY13         -0.0003976   0.0003678   0.0002788  -0.0000889   0.0001278
           HZ13          0.0000620   0.0000504  -0.0000749   0.0002019  -0.0001840
           OX14          0.0006218   0.0000637   0.0000284   0.0000145  -0.0000813
           OY14          0.0000362   0.0004007   0.0005122  -0.0000503   0.0000863
           OZ14         -0.0000024  -0.0037373  -0.0020629  -0.0002426   0.0002413
           HX15          0.0000341   0.0001964   0.0000828  -0.0000171  -0.0000051
           HY15          0.0000786   0.0001683   0.0000839   0.0000360  -0.0000270
           HZ15          0.0000869   0.0002911   0.0000777   0.0000147  -0.0000328
                             HZ2         HX3         HY3         HZ3         HX4     
           HZ2           0.0587131
           HX3           0.0260988   0.0540077
           HY3          -0.0155143  -0.0031445   0.1650121
           HZ3           0.0022631  -0.0040862   0.1449680   0.2574622
           HX4           0.0004562   0.0018850   0.0014265  -0.0012171   0.2474174
           HY4          -0.0006755  -0.0174356  -0.0131296   0.0011694   0.1474143
           HZ4          -0.0007151  -0.0251323  -0.0170347   0.0023411  -0.0081375
           CX5          -0.0283212  -0.0009547  -0.0004305   0.0005863   0.0018202
           CY5           0.0176712  -0.0005052   0.0152211  -0.0212909   0.0016429
           CZ5          -0.0002704  -0.0006063   0.0194892  -0.0225190  -0.0004835
           HX6          -0.0000721   0.0000138  -0.0000560  -0.0008847   0.0009951
           HY6           0.0041210  -0.0004455   0.0010965  -0.0000071  -0.0002635
           HZ6          -0.0057454  -0.0002030  -0.0011204   0.0011209   0.0007007
           HX7           0.0005551  -0.0000141  -0.0000183   0.0008761   0.0017490
           HY7          -0.0008695   0.0003805   0.0010972   0.0000441   0.0004150
           HZ7           0.0014525   0.0002659  -0.0011071   0.0010978  -0.0005086
           CX8          -0.0012329   0.0002583   0.0001178  -0.0002112  -0.0001161
           CY8           0.0003305   0.0001212  -0.0032058   0.0068072  -0.0001003
           CZ8           0.0021491  -0.0001040   0.0032961  -0.0045313  -0.0001290
           HX9           0.0000438   0.0002724   0.0003416  -0.0001915   0.0004058
           HY9          -0.0000708   0.0003636   0.0001047   0.0000734   0.0003391
           HZ9          -0.0000811   0.0003154   0.0001120   0.0003587   0.0005381
           HX10          0.0005288   0.0002850  -0.0003156   0.0001577  -0.0000308
           HY10         -0.0004497  -0.0003386   0.0000729   0.0000948  -0.0000836
           HZ10         -0.0004787  -0.0003294   0.0001061   0.0003664  -0.0000128
           CX11          0.0000142   0.0006691   0.0000127   0.0000479   0.0003429
           CY11          0.0003489  -0.0000373   0.0012625  -0.0021638   0.0003302
           CZ11         -0.0000342  -0.0000221   0.0006176   0.0000538   0.0000595
           HX12         -0.0000228  -0.0000316  -0.0000494   0.0001315  -0.0000280
           HY12          0.0000150   0.0000529   0.0000197   0.0000994   0.0000736
           HZ12          0.0000093  -0.0000696  -0.0000745  -0.0000219  -0.0001934
           HX13          0.0002248  -0.0000324   0.0000458  -0.0001598  -0.0000227
           HY13         -0.0002687  -0.0000572   0.0000001   0.0001564   0.0000170
           HZ13          0.0000982   0.0000756  -0.0000763  -0.0000385  -0.0000068
           OX14          0.0001548  -0.0000309  -0.0000224  -0.0000106  -0.0000058
           OY14         -0.0001762   0.0000179  -0.0001262   0.0000786   0.0000580
           OZ14          0.0000444  -0.0000263   0.0006954  -0.0015882   0.0002435
           HX15         -0.0000235  -0.0000009  -0.0000222   0.0001030  -0.0000144
           HY15          0.0000315  -0.0000124  -0.0000546   0.0000556  -0.0000555
           HZ15         -0.0000204   0.0000093  -0.0000107   0.0001808   0.0000087
                             HY4         HZ4         CX5         CY5         CZ5     
           HY4           0.1682403
           HZ4          -0.0092269   0.0587641
           CX5          -0.0175231   0.0272670   0.6525617
           CY5          -0.0126792   0.0192843   0.0018063   0.5968545
           CZ5          -0.0002254  -0.0003187  -0.0004626  -0.0044077   0.5276011
           HX6           0.0003907  -0.0005139  -0.2402724   0.1241537   0.0001597
           HY6           0.0000544  -0.0009025   0.1220251  -0.1448529  -0.0004330
           HZ6          -0.0007315   0.0014338   0.0001800  -0.0007929  -0.0578849
           HX7           0.0007212  -0.0002130  -0.2274961  -0.1289795   0.0008376
           HY7          -0.0015945   0.0041089  -0.1267365  -0.1583576   0.0003365
           HZ7           0.0043061  -0.0057451   0.0008361   0.0000986  -0.0578100
           CX8           0.0002034   0.0012368  -0.0945367   0.0021479   0.0013350
           CY8           0.0003319   0.0004054   0.0018134  -0.1407140  -0.0583571
           CZ8          -0.0012780   0.0021762   0.0009431  -0.0547754  -0.1763399
           HX9           0.0003736  -0.0005364   0.0004432   0.0008073   0.0005919
           HY9           0.0008458  -0.0004783  -0.0182335  -0.0133902   0.0000141
           HZ9           0.0005012  -0.0004705  -0.0271744  -0.0196694  -0.0003097
           HX10          0.0000764  -0.0000294   0.0007620  -0.0008252  -0.0003467
           HY10          0.0000728  -0.0000801   0.0180748  -0.0119147   0.0001898
           HZ10          0.0000598  -0.0000971   0.0277805  -0.0179147  -0.0003096
           CX11          0.0002154  -0.0000503  -0.0006873  -0.0002763   0.0003256
           CY11          0.0001075   0.0003220  -0.0006004   0.0195497  -0.0194589
           CZ11         -0.0001387  -0.0000282  -0.0004472   0.0103464  -0.0264193
           HX12          0.0000776  -0.0001957  -0.0001523  -0.0003752   0.0000685
           HY12          0.0001185  -0.0002394  -0.0000881  -0.0000825  -0.0009125
           HZ12         -0.0002089   0.0001120   0.0007048   0.0005220   0.0019119
           HX13          0.0000111   0.0000260  -0.0003166   0.0004989   0.0000163
           HY13         -0.0000532  -0.0000055   0.0002826  -0.0004489  -0.0007446
           HZ13          0.0000271   0.0000138  -0.0006374   0.0005404   0.0020025
           OX14          0.0000883  -0.0001391   0.0010684  -0.0002999  -0.0000800
           OY14          0.0000858  -0.0001677   0.0000254  -0.0008348   0.0014228
           OZ14          0.0002391   0.0000672   0.0001149   0.0109091  -0.0056512
           HX15         -0.0000445   0.0000003   0.0001536  -0.0003068   0.0001233
           HY15         -0.0000091   0.0000092  -0.0000048  -0.0004376   0.0006095
           HZ15          0.0000042  -0.0000953   0.0005814  -0.0002892  -0.0004251
                             HX6         HY6         HZ6         HX7         HY7     
           HX6           0.2577076
           HY6          -0.1388015   0.1550898
           HZ6          -0.0000155   0.0001939   0.0650779
           HX7          -0.0246197  -0.0183284   0.0001640   0.2431233
           HY7           0.0163222   0.0150175  -0.0001821   0.1437196   0.1702458
           HZ7          -0.0000177  -0.0000857  -0.0003325  -0.0010091  -0.0006738
           CX8           0.0002322   0.0192955   0.0281132   0.0010364  -0.0184957
           CY8          -0.0007031  -0.0124326  -0.0178286   0.0012072  -0.0132800
           CZ8           0.0003500  -0.0002666   0.0001563  -0.0002929  -0.0002634
           HX9           0.0011170  -0.0003337  -0.0006704   0.0018357   0.0002265
           HY9           0.0003199   0.0002168   0.0007462   0.0003818  -0.0019688
           HZ9           0.0006347   0.0008400   0.0013706   0.0002760  -0.0041697
           HX10          0.0018456  -0.0002946  -0.0003114   0.0010076   0.0003550
           HY10         -0.0001666  -0.0019082  -0.0037320  -0.0002282   0.0001964
           HZ10         -0.0001021  -0.0040844  -0.0056378  -0.0006402   0.0007848
           CX11         -0.0006133   0.0003138   0.0015777  -0.0004605  -0.0002829
           CY11          0.0008595  -0.0002913  -0.0009913  -0.0007569  -0.0002754
           CZ11         -0.0005435   0.0011987   0.0012436   0.0004925   0.0011831
           HX12          0.0000133  -0.0001015  -0.0000576   0.0005520   0.0003983
           HY12          0.0000857   0.0000658   0.0000798   0.0003854   0.0008781
           HZ12         -0.0000389  -0.0000592  -0.0000513  -0.0005203  -0.0004888
           HX13          0.0006403  -0.0004687  -0.0005238   0.0000242   0.0000925
           HY13         -0.0005420   0.0009128   0.0004057  -0.0000656   0.0000768
           HZ13          0.0004880  -0.0004256  -0.0006020   0.0000320  -0.0000788
           OX14          0.0004200  -0.0005680  -0.0007243   0.0003932   0.0005557
           OY14         -0.0005478   0.0005005   0.0007243   0.0004805   0.0004879
           OZ14          0.0003140  -0.0001344   0.0000169  -0.0004367  -0.0002076
           HX15         -0.0000883   0.0001447   0.0001029  -0.0000391   0.0000312
           HY15          0.0001102  -0.0001630  -0.0001699   0.0000153  -0.0000481
           HZ15         -0.0001276   0.0000732   0.0000860   0.0002317   0.0004156
                             HZ7         CX8         CY8         CZ8         HX9     
           HZ7           0.0650815
           CX8          -0.0269189   0.6558637
           CY8          -0.0192344  -0.0057411   0.6096371
           CZ8          -0.0000780  -0.0015670  -0.0022190   0.5394041
           HX9           0.0001469  -0.2251352  -0.1252185  -0.0001033   0.2410122
           HY9          -0.0039650  -0.1230250  -0.1535343   0.0014257   0.1409087
           HZ9          -0.0057329   0.0003326   0.0008852  -0.0582497  -0.0003970
           HX10          0.0006157  -0.2437609   0.1267122   0.0017331  -0.0243073
           HY10          0.0007663   0.1241040  -0.1457708  -0.0004921  -0.0186504
           HZ10          0.0013610   0.0029736  -0.0022682  -0.0576188  -0.0000941
           CX11         -0.0014388  -0.0999227  -0.0000744  -0.0040181   0.0003944
           CY11         -0.0009777   0.0013280  -0.1505693   0.0601668   0.0003944
           CZ11          0.0013045  -0.0018532   0.0762433  -0.1705686  -0.0021216
           HX12          0.0005073   0.0020361   0.0015190  -0.0004633   0.0019358
           HY12          0.0003765  -0.0189215  -0.0117714   0.0018952   0.0000388
           HZ12         -0.0006185   0.0267880   0.0185380  -0.0005098  -0.0003882
           HX13          0.0000556   0.0001370  -0.0005493   0.0014172   0.0013064
           HY13          0.0000927   0.0206189  -0.0105068   0.0022768  -0.0003069
           HZ13         -0.0000255  -0.0274754   0.0174688   0.0001007   0.0009454
           OX14          0.0005069   0.0030442  -0.0002032   0.0010039   0.0010121
           OY14          0.0005530  -0.0021632   0.0107108   0.0104473   0.0021142
           OZ14          0.0000776   0.0017487  -0.0385814  -0.0454117   0.0014999
           HX15          0.0001297   0.0006505   0.0016458   0.0004896  -0.0001891
           HY15          0.0000478   0.0014394   0.0028694   0.0008211  -0.0005166
           HZ15          0.0003650  -0.0025606  -0.0007554   0.0012525   0.0011174
                             HY9         HZ9         HX10        HY10        HZ10    
           HY9           0.1666121
           HZ9          -0.0008419   0.0638163
           HX10          0.0159290  -0.0000158   0.2607696
           HY10          0.0143611   0.0001592  -0.1405063   0.1572871
           HZ10          0.0001313  -0.0001707  -0.0026048   0.0013577   0.0623681
           CX11         -0.0203053   0.0286130  -0.0005816   0.0208395  -0.0289639
           CY11         -0.0152438   0.0211502   0.0006224  -0.0144355   0.0202078
           CZ11         -0.0020022  -0.0006820   0.0017079  -0.0013654  -0.0005466
           HX12          0.0005713  -0.0004031   0.0012327  -0.0002348   0.0005736
           HY12         -0.0018022   0.0037668   0.0001440   0.0002831  -0.0008977
           HZ12          0.0040450  -0.0056373  -0.0006676  -0.0007782   0.0013354
           HX13          0.0004805  -0.0006303   0.0019112  -0.0000786  -0.0000104
           HY13          0.0003769  -0.0012042   0.0000767  -0.0019687   0.0038795
           HZ13         -0.0005951   0.0012907   0.0001229   0.0041027  -0.0057299
           OX14          0.0020471  -0.0007912   0.0009184  -0.0020296   0.0013124
           OY14          0.0023152  -0.0008039  -0.0019974   0.0025553  -0.0017408
           OZ14         -0.0006652   0.0035679  -0.0008586  -0.0010604   0.0034507
           HX15         -0.0001491  -0.0003379  -0.0004095  -0.0000447  -0.0003072
           HY15          0.0005380  -0.0004314   0.0003497  -0.0001024   0.0001614
           HZ15          0.0009748  -0.0009708   0.0000681   0.0001677  -0.0001805
                             CX11        CY11        CZ11        HX12        HY12    
           CX11          0.6999809
           CY11          0.0280664   0.6281125
           CZ11         -0.0028502   0.0052160   0.5407904
           HX12         -0.2484070  -0.1334902   0.0098300   0.2583618
           HY12         -0.1238897  -0.1537144   0.0094328   0.1461598   0.1718222
           HZ12          0.0186879   0.0154335  -0.0589593  -0.0097626  -0.0014430
           HX13         -0.2445308   0.1165196  -0.0122126  -0.0241302   0.0164454
           HY13          0.1121350  -0.1423094   0.0110841  -0.0168198   0.0150524
           HZ13         -0.0157325   0.0104478  -0.0608477   0.0018385  -0.0003628
           OX14         -0.1090539  -0.0172974   0.0045946   0.0059276  -0.0219272
           OY14          0.0080459  -0.1488578  -0.1097562   0.0002445  -0.0189418
           OZ14          0.0400451  -0.0777402  -0.2210421  -0.0028321  -0.0079086
           HX15          0.0035638   0.0042465   0.0034320   0.0023781   0.0011050
           HY15         -0.0246885  -0.0176375  -0.0000799   0.0017241  -0.0021214
           HZ15         -0.0363441  -0.0271276  -0.0028762   0.0005343  -0.0040730
                             HZ12        HX13        HY13        HZ13        OX14    
           HZ12          0.0724847
           HX13         -0.0023865   0.2559556
           HY13         -0.0005485  -0.1349704   0.1563758
           HZ13          0.0021510   0.0081053  -0.0008529   0.0724318
           OX14         -0.0325640   0.0075624   0.0186651   0.0312573   0.5029500
           OY14         -0.0305049   0.0025374  -0.0179108  -0.0315301   0.2900374
           OZ14         -0.0066633   0.0057195  -0.0150819  -0.0122046  -0.0294628
           HX15          0.0004940   0.0011263   0.0014532   0.0007233  -0.4148421
           HY15         -0.0045275  -0.0000351  -0.0000926   0.0014684  -0.2690285
           HZ15         -0.0054662   0.0006544   0.0005323   0.0014345   0.0249137
                             OY14        OZ14        HX15        HY15        HZ15    
           OY14          0.3890067
           OZ14          0.1718822   0.3296484
           HX15         -0.2988386  -0.0158241   0.4076941
           HY15         -0.2194778  -0.0388504   0.2905882   0.2365954
           HZ15         -0.0109408  -0.0422490   0.0108117   0.0407706   0.0488870


 Atomic Masses
 1-10   12.000000    1.007825    1.007825    1.007825   12.000000    1.007825    1.007825   12.000000    1.007825    1.007825
 11-15   12.000000    1.007825    1.007825   15.994910    1.007825

 Mass weighted Second Derivative Matrix
                             CX1         CY1         CZ1         HX2         HY2     
           CX1           0.0520868
           CY1           0.0000287   0.0501104
           CZ1          -0.0001222   0.0038300   0.0472452
           HX2          -0.0709792   0.0366338  -0.0024731   0.2630702
           HY2           0.0363050  -0.0409609   0.0015246  -0.1408486   0.1501542
           HZ2          -0.0018793   0.0011118  -0.0165010   0.0080683  -0.0082948
           HX3          -0.0164881   0.0008037   0.0010968   0.0010050   0.0181035
           HY3           0.0008003  -0.0446470  -0.0386317  -0.0006636  -0.0120110
           HZ3           0.0010691  -0.0377489  -0.0680193   0.0011320   0.0011822
           HX4          -0.0663894  -0.0380229   0.0024965  -0.0233371  -0.0188366
           HY4          -0.0377152  -0.0452995   0.0017765   0.0164618   0.0150257
           HZ4           0.0019505   0.0013415  -0.0165165  -0.0003630  -0.0006548
           CX5          -0.0077679   0.0001080  -0.0001626   0.0002365   0.0052602
           CY5           0.0001118  -0.0113501   0.0049807  -0.0002387  -0.0033679
           CZ5          -0.0001647   0.0052227  -0.0152715   0.0001432  -0.0000560
           HX6           0.0002335  -0.0002712   0.0001063   0.0017829  -0.0004780
           HY6           0.0051929  -0.0033529  -0.0000081  -0.0002309  -0.0016332
           HZ6          -0.0082206   0.0054822  -0.0000725   0.0002536   0.0043000
           HX7           0.0005482   0.0005155  -0.0001014   0.0009936  -0.0003243
           HY7          -0.0049697  -0.0036031   0.0000175   0.0002988   0.0000545
           HZ7           0.0079000   0.0059182  -0.0001142  -0.0006392  -0.0007725
           CX8           0.0000256  -0.0000517  -0.0000590  -0.0000269  -0.0000828
           CY8          -0.0000412   0.0014905   0.0015471   0.0000188   0.0001007
           CZ8           0.0000449  -0.0016486  -0.0026609   0.0000580  -0.0003600
           HX9          -0.0000218  -0.0000309   0.0000452  -0.0000273  -0.0000707
           HY9           0.0000834   0.0001425   0.0003474   0.0000811   0.0000724
           HZ9          -0.0002801  -0.0001005   0.0005465   0.0000141   0.0000551
           HX10         -0.0000120   0.0000023  -0.0000287   0.0003967  -0.0003318
           HY10         -0.0000906   0.0001421   0.0003220  -0.0003390   0.0007712
           HZ10          0.0002811  -0.0000675   0.0005429  -0.0005484   0.0004485
           CX11         -0.0000874   0.0000046   0.0000072   0.0001022  -0.0000480
           CY11          0.0000099  -0.0004792  -0.0004028  -0.0000873   0.0000152
           CZ11         -0.0000005  -0.0001530  -0.0001157  -0.0000172  -0.0000414
           HX12          0.0000970   0.0001100   0.0000729  -0.0000255  -0.0000062
           HY12          0.0000986   0.0000723   0.0000493  -0.0000067  -0.0000573
           HZ12         -0.0000261   0.0000188  -0.0000221   0.0000071   0.0000294
           HX13          0.0001087  -0.0001242  -0.0000851  -0.0000088  -0.0000962
           HY13         -0.0001143   0.0001058   0.0000802  -0.0000882   0.0001268
           HZ13          0.0000178   0.0000145  -0.0000215   0.0002003  -0.0001826
           OX14          0.0000449   0.0000046   0.0000021   0.0000036  -0.0000202
           OY14          0.0000026   0.0000289   0.0000370  -0.0000125   0.0000215
           OZ14         -0.0000002  -0.0002698  -0.0001489  -0.0000604   0.0000601
           HX15          0.0000098   0.0000565   0.0000238  -0.0000170  -0.0000051
           HY15          0.0000226   0.0000484   0.0000241   0.0000357  -0.0000268
           HZ15          0.0000250   0.0000837   0.0000223   0.0000145  -0.0000325
                             HZ2         HX3         HY3         HZ3         HX4     
           HZ2           0.0582572
           HX3           0.0258961   0.0535884
           HY3          -0.0153938  -0.0031201   0.1637309
           HZ3           0.0022456  -0.0040545   0.1438424   0.2554632
           HX4           0.0004527   0.0018704   0.0014154  -0.0012076   0.2454964
           HY4          -0.0006702  -0.0173002  -0.0130277   0.0011603   0.1462698
           HZ4          -0.0007096  -0.0249371  -0.0169024   0.0023230  -0.0080743
           CX5          -0.0081438  -0.0002745  -0.0001238   0.0001686   0.0005234
           CY5           0.0050814  -0.0001453   0.0043769  -0.0061223   0.0004724
           CZ5          -0.0000777  -0.0001743   0.0056042  -0.0064754  -0.0001390
           HX6          -0.0000715   0.0000137  -0.0000556  -0.0008779   0.0009873
           HY6           0.0040890  -0.0004420   0.0010880  -0.0000071  -0.0002614
           HZ6          -0.0057008  -0.0002014  -0.0011117   0.0011122   0.0006953
           HX7           0.0005508  -0.0000140  -0.0000182   0.0008693   0.0017354
           HY7          -0.0008628   0.0003776   0.0010887   0.0000437   0.0004118
           HZ7           0.0014412   0.0002638  -0.0010985   0.0010893  -0.0005047
           CX8          -0.0003545   0.0000743   0.0000339  -0.0000607  -0.0000334
           CY8           0.0000950   0.0000349  -0.0009218   0.0019574  -0.0000288
           CZ8           0.0006180  -0.0000299   0.0009478  -0.0013030  -0.0000371
           HX9           0.0000435   0.0002703   0.0003389  -0.0001900   0.0004026
           HY9          -0.0000703   0.0003608   0.0001039   0.0000729   0.0003364
           HZ9          -0.0000805   0.0003129   0.0001111   0.0003559   0.0005339
           HX10          0.0005246   0.0002828  -0.0003131   0.0001565  -0.0000306
           HY10         -0.0004462  -0.0003360   0.0000724   0.0000940  -0.0000829
           HZ10         -0.0004750  -0.0003268   0.0001053   0.0003636  -0.0000127
           CX11          0.0000041   0.0001924   0.0000037   0.0000138   0.0000986
           CY11          0.0001003  -0.0000107   0.0003630  -0.0006222   0.0000949
           CZ11         -0.0000098  -0.0000064   0.0001776   0.0000155   0.0000171
           HX12         -0.0000226  -0.0000314  -0.0000491   0.0001304  -0.0000278
           HY12          0.0000149   0.0000525   0.0000196   0.0000986   0.0000730
           HZ12          0.0000093  -0.0000690  -0.0000739  -0.0000217  -0.0001919
           HX13          0.0002230  -0.0000321   0.0000454  -0.0001585  -0.0000225
           HY13         -0.0002667  -0.0000568   0.0000001   0.0001552   0.0000169
           HZ13          0.0000974   0.0000750  -0.0000757  -0.0000382  -0.0000067
           OX14          0.0000386  -0.0000077  -0.0000056  -0.0000026  -0.0000014
           OY14         -0.0000439   0.0000045  -0.0000314   0.0000196   0.0000144
           OZ14          0.0000111  -0.0000065   0.0001732  -0.0003956   0.0000607
           HX15         -0.0000233  -0.0000009  -0.0000220   0.0001022  -0.0000143
           HY15          0.0000312  -0.0000123  -0.0000542   0.0000552  -0.0000551
           HZ15         -0.0000203   0.0000092  -0.0000106   0.0001794   0.0000086
                             HY4         HZ4         CX5         CY5         CZ5     
           HY4           0.1669340
           HZ4          -0.0091553   0.0583079
           CX5          -0.0050388   0.0078407   0.0543801
           CY5          -0.0036459   0.0055452   0.0001505   0.0497379
           CZ5          -0.0000648  -0.0000916  -0.0000385  -0.0003673   0.0439668
           HX6           0.0003877  -0.0005099  -0.0690909   0.0357007   0.0000459
           HY6           0.0000540  -0.0008955   0.0350886  -0.0416528  -0.0001245
           HZ6          -0.0007258   0.0014226   0.0000518  -0.0002280  -0.0166449
           HX7           0.0007156  -0.0002113  -0.0654170  -0.0370883   0.0002408
           HY7          -0.0015822   0.0040770  -0.0364434  -0.0455361   0.0000968
           HZ7           0.0042726  -0.0057005   0.0002404   0.0000284  -0.0166234
           CX8           0.0000585   0.0003556  -0.0078781   0.0001790   0.0001112
           CY8           0.0000954   0.0001166   0.0001511  -0.0117262  -0.0048631
           CZ8          -0.0003675   0.0006258   0.0000786  -0.0045646  -0.0146950
           HX9           0.0003707  -0.0005322   0.0001275   0.0002321   0.0001702
           HY9           0.0008392  -0.0004746  -0.0052431  -0.0038504   0.0000041
           HZ9           0.0004973  -0.0004668  -0.0078141  -0.0056560  -0.0000891
           HX10          0.0000758  -0.0000291   0.0002191  -0.0002373  -0.0000997
           HY10          0.0000723  -0.0000795   0.0051974  -0.0034261   0.0000546
           HZ10          0.0000594  -0.0000964   0.0079883  -0.0051514  -0.0000890
           CX11          0.0000619  -0.0000145  -0.0000573  -0.0000230   0.0000271
           CY11          0.0000309   0.0000926  -0.0000500   0.0016291  -0.0016216
           CZ11         -0.0000399  -0.0000081  -0.0000373   0.0008622  -0.0022016
           HX12          0.0000770  -0.0001941  -0.0000438  -0.0001079   0.0000197
           HY12          0.0001176  -0.0002375  -0.0000253  -0.0000237  -0.0002624
           HZ12         -0.0002073   0.0001111   0.0002027   0.0001501   0.0005498
           HX13          0.0000110   0.0000258  -0.0000910   0.0001435   0.0000047
           HY13         -0.0000528  -0.0000055   0.0000813  -0.0001291  -0.0002141
           HZ13          0.0000269   0.0000137  -0.0001833   0.0001554   0.0005758
           OX14          0.0000220  -0.0000347   0.0000771  -0.0000216  -0.0000058
           OY14          0.0000214  -0.0000418   0.0000018  -0.0000603   0.0001027
           OZ14          0.0000596   0.0000167   0.0000083   0.0007874  -0.0004079
           HX15         -0.0000441   0.0000003   0.0000442  -0.0000882   0.0000355
           HY15         -0.0000090   0.0000091  -0.0000014  -0.0001258   0.0001753
           HZ15          0.0000042  -0.0000946   0.0001672  -0.0000832  -0.0001223
                             HX6         HY6         HZ6         HX7         HY7     
           HX6           0.2557067
           HY6          -0.1377239   0.1538857
           HZ6          -0.0000154   0.0001924   0.0645726
           HX7          -0.0244285  -0.0181861   0.0001627   0.2412357
           HY7           0.0161955   0.0149009  -0.0001807   0.1426037   0.1689239
           HZ7          -0.0000176  -0.0000850  -0.0003300  -0.0010012  -0.0006686
           CX8           0.0000668   0.0055485   0.0080840   0.0002980  -0.0053185
           CY8          -0.0002022  -0.0035750  -0.0051266   0.0003471  -0.0038187
           CZ8           0.0001006  -0.0000767   0.0000449  -0.0000842  -0.0000757
           HX9           0.0011083  -0.0003311  -0.0006652   0.0018215   0.0002248
           HY9           0.0003174   0.0002152   0.0007404   0.0003789  -0.0019535
           HZ9           0.0006297   0.0008335   0.0013600   0.0002738  -0.0041373
           HX10          0.0018313  -0.0002923  -0.0003090   0.0009998   0.0003523
           HY10         -0.0001653  -0.0018934  -0.0037030  -0.0002264   0.0001949
           HZ10         -0.0001014  -0.0040527  -0.0055941  -0.0006352   0.0007787
           CX11         -0.0001764   0.0000902   0.0004537  -0.0001324  -0.0000813
           CY11          0.0002471  -0.0000838  -0.0002850  -0.0002177  -0.0000792
           CZ11         -0.0001563   0.0003447   0.0003576   0.0001416   0.0003402
           HX12          0.0000132  -0.0001007  -0.0000572   0.0005477   0.0003952
           HY12          0.0000850   0.0000653   0.0000792   0.0003824   0.0008713
           HZ12         -0.0000386  -0.0000588  -0.0000509  -0.0005163  -0.0004850
           HX13          0.0006353  -0.0004650  -0.0005197   0.0000241   0.0000918
           HY13         -0.0005378   0.0009057   0.0004025  -0.0000650   0.0000762
           HZ13          0.0004842  -0.0004223  -0.0005974   0.0000317  -0.0000782
           OX14          0.0001046  -0.0001415  -0.0001804   0.0000979   0.0001384
           OY14         -0.0001364   0.0001246   0.0001804   0.0001197   0.0001215
           OZ14          0.0000782  -0.0000335   0.0000042  -0.0001088  -0.0000517
           HX15         -0.0000877   0.0001436   0.0001021  -0.0000388   0.0000309
           HY15          0.0001093  -0.0001617  -0.0001686   0.0000152  -0.0000478
           HZ15         -0.0001266   0.0000726   0.0000854   0.0002299   0.0004124
                             HZ7         CX8         CY8         CZ8         HX9     
           HZ7           0.0645762
           CX8          -0.0077406   0.0546553
           CY8          -0.0055309  -0.0004784   0.0508031
           CZ8          -0.0000224  -0.0001306  -0.0001849   0.0449503
           HX9           0.0001457  -0.0647381  -0.0360069  -0.0000297   0.2391409
           HY9          -0.0039342  -0.0353761  -0.0441491   0.0004100   0.1398147
           HZ9          -0.0056884   0.0000956   0.0002545  -0.0167498  -0.0003939
           HX10          0.0006109  -0.0700940   0.0364364   0.0004983  -0.0241185
           HY10          0.0007604   0.0356864  -0.0419167  -0.0001415  -0.0185056
           HZ10          0.0013504   0.0008551  -0.0006522  -0.0165684  -0.0000934
           CX11         -0.0004137  -0.0083269  -0.0000062  -0.0003348   0.0001134
           CY11         -0.0002811   0.0001107  -0.0125474   0.0050139   0.0001134
           CZ11          0.0003751  -0.0001544   0.0063536  -0.0142140  -0.0006101
           HX12          0.0005033   0.0005855   0.0004368  -0.0001332   0.0019207
           HY12          0.0003736  -0.0054409  -0.0033849   0.0005450   0.0000385
           HZ12         -0.0006137   0.0077029   0.0053306  -0.0001466  -0.0003852
           HX13          0.0000552   0.0000394  -0.0001579   0.0004075   0.0012963
           HY13          0.0000920   0.0059290  -0.0030213   0.0006547  -0.0003046
           HZ13         -0.0000254  -0.0079006   0.0050232   0.0000289   0.0009381
           OX14          0.0001262   0.0002197  -0.0000147   0.0000725   0.0002521
           OY14          0.0001377  -0.0001561   0.0007731   0.0007541   0.0005266
           OZ14          0.0000193   0.0001262  -0.0027848  -0.0032778   0.0003736
           HX15          0.0001287   0.0001871   0.0004732   0.0001408  -0.0001876
           HY15          0.0000475   0.0004139   0.0008251   0.0002361  -0.0005126
           HZ15          0.0003622  -0.0007363  -0.0002172   0.0003602   0.0011087
                             HY9         HZ9         HX10        HY10        HZ10    
           HY9           0.1653185
           HZ9          -0.0008354   0.0633209
           HX10          0.0158053  -0.0000157   0.2587449
           HY10          0.0142496   0.0001579  -0.1394154   0.1560659
           HZ10          0.0001303  -0.0001693  -0.0025845   0.0013472   0.0618839
           CX11         -0.0058388   0.0082277  -0.0001672   0.0059924  -0.0083286
           CY11         -0.0043834   0.0060818   0.0001790  -0.0041510   0.0058108
           CZ11         -0.0005757  -0.0001961   0.0004911  -0.0003926  -0.0001572
           HX12          0.0005669  -0.0003999   0.0012231  -0.0002330   0.0005691
           HY12         -0.0017882   0.0037376   0.0001429   0.0002809  -0.0008907
           HZ12          0.0040136  -0.0055935  -0.0006624  -0.0007722   0.0013251
           HX13          0.0004768  -0.0006254   0.0018964  -0.0000780  -0.0000103
           HY13          0.0003740  -0.0011949   0.0000761  -0.0019534   0.0038494
           HZ13         -0.0005905   0.0012807   0.0001219   0.0040709  -0.0056854
           OX14          0.0005099  -0.0001971   0.0002288  -0.0005055   0.0003269
           OY14          0.0005766  -0.0002002  -0.0004975   0.0006364  -0.0004336
           OZ14         -0.0001657   0.0008887  -0.0002139  -0.0002641   0.0008595
           HX15         -0.0001480  -0.0003353  -0.0004063  -0.0000444  -0.0003048
           HY15          0.0005338  -0.0004280   0.0003470  -0.0001016   0.0001601
           HZ15          0.0009672  -0.0009633   0.0000676   0.0001664  -0.0001791
                             CX11        CY11        CZ11        HX12        HY12    
           CX11          0.0583317
           CY11          0.0023389   0.0523427
           CZ11         -0.0002375   0.0004347   0.0450659
           HX12         -0.0714300  -0.0383854   0.0028266   0.2563558
           HY12         -0.0356248  -0.0442009   0.0027124   0.1450249   0.1704882
           HZ12          0.0053737   0.0044380  -0.0169539  -0.0096868  -0.0014318
           HX13         -0.0703154   0.0335055  -0.0035118  -0.0239429   0.0163177
           HY13          0.0322447  -0.0409214   0.0031873  -0.0166892   0.0149356
           HZ13         -0.0045239   0.0030043  -0.0174969   0.0018242  -0.0003600
           OX14         -0.0078715  -0.0012485   0.0003316   0.0014764  -0.0054614
           OY14          0.0005808  -0.0107446  -0.0079222   0.0000609  -0.0047178
           OZ14          0.0028905  -0.0056113  -0.0159549  -0.0007054  -0.0019698
           HX15          0.0010248   0.0012211   0.0009869   0.0023597   0.0010965
           HY15         -0.0070992  -0.0050717  -0.0000230   0.0017108  -0.0021049
           HZ15         -0.0104508  -0.0078006  -0.0008270   0.0005302  -0.0040414
                             HZ12        HX13        HY13        HZ13        OX14    
           HZ12          0.0719219
           HX13         -0.0023679   0.2539683
           HY13         -0.0005442  -0.1339225   0.1551617
           HZ13          0.0021343   0.0080423  -0.0008463   0.0718694
           OX14         -0.0081106   0.0018835   0.0046489   0.0077852   0.0314444
           OY14         -0.0075978   0.0006320  -0.0044610  -0.0078531   0.0181331
           OZ14         -0.0016596   0.0014245  -0.0037564  -0.0030398  -0.0018420
           HX15          0.0004901   0.0011175   0.0014419   0.0007177  -0.1033236
           HY15         -0.0044924  -0.0000349  -0.0000918   0.0014570  -0.0670062
           HZ15         -0.0054237   0.0006493   0.0005282   0.0014233   0.0062052
                             OY14        OZ14        HX15        HY15        HZ15    
           OY14          0.0243207
           OZ14          0.0107461   0.0206096
           HX15         -0.0744309  -0.0039413   0.4045286
           HY15         -0.0546647  -0.0096763   0.2883320   0.2347584
           HZ15         -0.0027250  -0.0105228   0.0107278   0.0404541   0.0485074


 Mass Weighted 2nd Derivative Matrix Eigenvalues
 1-10    0.000000    0.000000    0.000000    0.000000    0.000000    0.000000    0.000493    0.000651    0.001469    0.002673
 11-20    0.003937    0.006540    0.008687    0.023826    0.028306    0.035561    0.039166    0.043500    0.047985    0.053088
 21-30    0.054187    0.057738    0.067300    0.073535    0.076434    0.077881    0.084235    0.087657    0.089763    0.093028
 31-40    0.097884    0.098528    0.098716    0.100016    0.102449    0.370966    0.372786    0.375256    0.377135    0.379805
 41-45    0.385060    0.391585    0.392440    0.395134    0.660588

 Mass Weighted 2nd Derivative Matrix Eigenvectors
              1             2             3             4             5             6             7             8
    1    0.00000000    0.00000000    0.71998987    0.00000000    0.00000000    0.00000000   -0.35589450    0.16675839
    2    0.65464631   -0.09613511    0.00208449    0.12817435    0.05127889   -0.03309913   -0.01307452    0.00014522
    3    0.05598557   -0.18132158   -0.00177062   -0.06544512    0.04584986    0.35225000    0.00065190   -0.00317203
    4    0.01956380    0.09591072    0.24606305    0.00104833   -0.02547593    0.04993979   -0.21190665   -0.03915633
    5    0.22089304    0.11374935    0.05185681    0.03829695   -0.01948359    0.06385705   -0.15914416   -0.13591739
    6    0.04812097   -0.03655941   -0.04404845   -0.02374534    0.04993963    0.10683748    0.05135370   -0.09895700
    7   -0.01928068   -0.11824001    0.21528278   -0.01169156   -0.00223670   -0.06000622   -0.04481998    0.24185329
    8    0.23637319   -0.03409734   -0.00041912    0.01553952    0.02879509   -0.01581861   -0.00227544    0.00407287
    9   -0.01766477   -0.05046813    0.00035601   -0.00369048    0.00323718    0.10533597    0.00025200    0.00010902
   10    0.02123164    0.10412867    0.24917619    0.00115631   -0.02760003    0.05421607   -0.22125098   -0.04695922
   11    0.16513322   -0.16385854   -0.04848017    0.03363589    0.04922915   -0.08046461    0.14493707    0.13058361
   12    0.05269349   -0.07269275    0.04118025   -0.04498248   -0.00303420    0.09078211   -0.05072437    0.09468873
   13   -0.09622240   -0.36534326    0.34090579    0.04265194    0.24795128   -0.19722903    0.36758062    0.13377067
   14    0.41547419   -0.09324780   -0.00303298    0.23582314   -0.01144341   -0.01666561    0.00951135    0.00752358
   15   -0.09816916   -0.17202866    0.00257629    0.00395157   -0.00011647    0.36697544    0.00072590    0.00231391
   16   -0.04794330   -0.20548059    0.06277252    0.01071484    0.09651124   -0.10893631    0.17520438    0.10917537
   17    0.09209119   -0.16753652   -0.05166753    0.06602372    0.03143954   -0.07787343    0.10021960    0.10183294
   18   -0.06126705   -0.06561027    0.04388768    0.00643348   -0.03669315    0.10176065   -0.06851565    0.06706170
   19   -0.04940920   -0.21263244    0.05990604    0.01065185    0.09846005   -0.11266249    0.18082998    0.11439090
   20    0.14730627    0.10803437    0.04792972    0.07071144   -0.03680407    0.06539768   -0.09128080   -0.09434482
   21   -0.06548283   -0.02976661   -0.04071268    0.02736658    0.01598066    0.11766513    0.06906270   -0.06452881
   22   -0.00721295    0.18844089    0.29576833    0.10018895    0.26741739    0.08339677    0.38901193   -0.45755306
   23    0.18324847   -0.06420488    0.00134659    0.34315135   -0.08020186    0.01326016    0.01371708   -0.00553313
   24    0.05881645   -0.18178908   -0.00114383   -0.06687828    0.04624416    0.35185029   -0.00128126    0.00038115
   25    0.01932774    0.16098179    0.12415591    0.03079832    0.05118706    0.07946490    0.18688450   -0.19365595
   26    0.02573378   -0.15451551   -0.04873373    0.09719722    0.01037802   -0.06680829   -0.09122579    0.07641707
   27    0.05391569   -0.07287139    0.04139563   -0.04558883   -0.00282880    0.09061965    0.06212618    0.04796670
   28    0.01793290    0.15440833    0.12100340    0.03084253    0.05330858    0.07602476    0.18178882   -0.18831248
   29    0.08061445    0.12178095    0.05111343    0.10211260   -0.05816936    0.07686994    0.10293903   -0.07901718
   30    0.04982996   -0.03694794   -0.04341701   -0.02466739    0.05001657    0.10654987   -0.06302209   -0.04943703
   31   -0.10302971   -0.17523941   -0.08194287    0.14271627    0.51446497   -0.11294495   -0.29802952   -0.34559018
   32   -0.05467103   -0.05881679   -0.00284773    0.45050538   -0.14334909    0.03094705   -0.00508549   -0.00740417
   33   -0.09469616   -0.17221306    0.00241893    0.00240146    0.00095695    0.36665456   -0.00230079   -0.00218402
   34   -0.05073071   -0.15360554   -0.06275118    0.04001889    0.17570325   -0.08623696   -0.19886342   -0.16712475
   35    0.00990025    0.11967448    0.04854577    0.13362376   -0.07582753    0.08015278    0.14471346    0.09070860
   36   -0.06334493   -0.02970098   -0.04123598    0.02650818    0.01691288    0.11754563   -0.04925694    0.09253656
   37   -0.05004235   -0.15052212   -0.06090090    0.03992490    0.17447113   -0.08461230   -0.19477869   -0.16639736
   38   -0.04516551   -0.15734471   -0.05156363    0.12871416   -0.00711158   -0.06389869   -0.15220288   -0.09801411
   39   -0.06044087   -0.06563278    0.04379942    0.00607615   -0.03640544    0.10169362    0.04653567   -0.09562186
   40   -0.02368180    0.38853019   -0.13947911    0.22550870    0.61263290    0.16910741   -0.07442172    0.47063502
   41   -0.30154427   -0.00634964    0.01251578    0.63370349   -0.24559724    0.08334996    0.03204966    0.02845030
   42    0.05837367   -0.20527981   -0.01063121   -0.07076916    0.05664580    0.40888034   -0.01187162    0.02244941
   43    0.01184471    0.18693892   -0.00503212    0.05854851    0.13315279    0.08885967    0.08912300    0.19560148
   44   -0.10195695   -0.12076108   -0.03998929    0.15811412   -0.03275523   -0.04088494   -0.14184898   -0.09148246
   45    0.04538832   -0.06913601    0.03396788   -0.04002707   -0.00049007    0.09283732    0.05708905   -0.07407011
              9            10            11            12            13            14            15            16
    1    0.01051618    0.04774534   -0.01032558    0.00257443   -0.00241617   -0.03472306    0.09846476   -0.00017309
    2   -0.35098778   -0.00128643   -0.04131809   -0.03828731    0.07885310   -0.00189769    0.00245638    0.02943516
    3   -0.22347186   -0.00345761   -0.01448188    0.54049266    0.01048149    0.00218093    0.00232287    0.39779805
    4    0.00606108   -0.20143865   -0.00279363    0.00340558    0.00205183    0.09442613   -0.10301415   -0.02713025
    5   -0.10498637   -0.33896411   -0.01235837   -0.00079976    0.03472097    0.13845347   -0.17079844   -0.05798019
    6   -0.16098715   -0.29204806   -0.01265969    0.23603658    0.10456523   -0.14558046    0.22293197   -0.16614982
    7    0.00128625    0.54617065   -0.01891449   -0.00095222   -0.00648804    0.07354530   -0.13557625    0.01162433
    8   -0.23595576    0.01395837   -0.04415445    0.09618676    0.15933751    0.00003932   -0.00549083   -0.38522875
    9    0.03104566   -0.00053705    0.01872210    0.08126177   -0.09420152    0.00187370    0.00183678    0.39769154
   10    0.00816180   -0.22067121   -0.00135722   -0.00237074   -0.00331509    0.10327387   -0.11371530    0.02908015
   11   -0.11610580    0.32509671   -0.01696910   -0.00060275    0.03361940   -0.13377667    0.16396333   -0.05507821
   12   -0.16440651    0.28830042   -0.04287684    0.23880122    0.10219240    0.14451236   -0.22299211   -0.16727609
   13   -0.01470288   -0.27842040    0.04225227    0.00241076    0.01392441   -0.19814672    0.19281993   -0.00977687
   14    0.23239191   -0.00492700    0.07793542   -0.19677007   -0.35568540   -0.00272094    0.00881874    0.34966721
   15    0.14754343    0.00128152    0.05616087    0.28933956   -0.24100540    0.00123198    0.00111224   -0.01142198
   16   -0.00834158   -0.14555061    0.01327308    0.00474972    0.01018333    0.22517446   -0.10587596   -0.00346838
   17    0.06120367   -0.09314303    0.02561583   -0.05010772   -0.09232884    0.39291765   -0.22105563    0.10090415
   18    0.10779167    0.00076851    0.02400956    0.12173946   -0.08445962    0.02896724    0.13838756   -0.14964000
   19   -0.00270710   -0.15032495    0.01526372   -0.00520433   -0.00053953    0.24520787   -0.11816538   -0.00349966
   20    0.06555520    0.08692851    0.01949975   -0.04824221   -0.09572213   -0.37889985    0.21738368    0.10139891
   21    0.10734134    0.00175026    0.03423489    0.12209198   -0.08490519   -0.03067269   -0.13647329   -0.15104481
   22   -0.01605439    0.14915724    0.05906849   -0.00724136    0.00589555   -0.15157202   -0.19030951    0.00689078
   23    0.45574133    0.00714124    0.06491975    0.19864813    0.00885713   -0.00555896   -0.00590571   -0.33196262
   24    0.01487623    0.00124897    0.05540033   -0.13858504   -0.32738124    0.00243296   -0.00197854   -0.28749033
   25   -0.00477466    0.10804728    0.06200160    0.00091081    0.00877142    0.23162985    0.15003996   -0.00225965
   26    0.13100955   -0.08109442   -0.03426997    0.05252232   -0.00726084   -0.34913451   -0.25817039   -0.09150261
   27    0.00498549   -0.04331038    0.04302181   -0.08219956   -0.19672092   -0.06384446    0.16243803   -0.14921481
   28   -0.01198728    0.10310175    0.05172330   -0.00830885    0.00895042    0.21079539    0.13222166    0.00589171
   29    0.12155488    0.08600837    0.06937818    0.04867993    0.01725361    0.35241017    0.26227504   -0.08941067
   30    0.00846818    0.04493324   -0.00004924   -0.08135651   -0.21475815    0.06889920   -0.16794117   -0.16038642
   31    0.01138465    0.10649449   -0.13608770   -0.00046799   -0.03643536   -0.02649157   -0.18359387    0.00055762
   32    0.16961251    0.00306084   -0.05291050    0.13327548    0.36994509    0.00265604    0.00124920    0.07179104
   33   -0.15123237   -0.00048328   -0.02330487   -0.37463419    0.03463408   -0.00369945   -0.00030725   -0.07193872
   34    0.00972335    0.04217130   -0.08375359    0.00119276   -0.01311822    0.09698977    0.17677622   -0.00326784
   35    0.03707520   -0.01475148    0.04358172    0.03371176    0.11096143   -0.13236060   -0.29370088    0.02703259
   36   -0.11627315   -0.01885437   -0.00745628   -0.15401092   -0.00828875    0.08143267    0.16091306    0.01071547
   37    0.00598195    0.04228126   -0.07614471   -0.00060602   -0.02142032    0.09265729    0.16667557   -0.00847999
   38    0.05048614    0.01731453   -0.06871527    0.03464523    0.09205876    0.13761025    0.30069387    0.01010601
   39   -0.11687085    0.01718764   -0.04201062   -0.15459360   -0.02504782   -0.07918268   -0.15589056   -0.00060697
   40   -0.00104847   -0.04279573    0.15718866    0.00306963    0.04259184    0.00698400    0.04587838    0.00677395
   41   -0.40312807   -0.01268809   -0.19452118   -0.11625743   -0.17501164    0.00445898    0.00797400    0.00148464
   42    0.21674875    0.00071654    0.06226762   -0.34257417    0.54698268   -0.00441629    0.01205370    0.09588220
   43    0.03133339   -0.03948203   -0.42990996    0.00435451   -0.08908267    0.01645508    0.05294932   -0.01684459
   44   -0.15248502    0.03543008    0.62553441   -0.03709559    0.09271258   -0.01906884   -0.04970496    0.02345842
   45    0.16793500    0.00382199   -0.51756601   -0.05553433    0.12816412    0.00378227   -0.05519576    0.06095157
             17            18            19            20            21            22            23            24
    1    0.19464263   -0.02773148    0.00765751    0.02744063   -0.05631623   -0.07604116   -0.30041388   -0.08797076
    2    0.01318640    0.30040668    0.20554574    0.11058691   -0.15712682    0.21457295   -0.03543000    0.15348172
    3   -0.01130843   -0.21545778   -0.22797627    0.07881780   -0.03822306    0.07766151   -0.01295142    0.07270492
    4   -0.09037273   -0.00535760    0.00043796   -0.02656213    0.03672636   -0.01153203    0.06605699   -0.02729792
    5   -0.18511520    0.07771507    0.06168334   -0.02695978    0.03998222    0.05226402    0.19216608    0.02075552
    6    0.24230462   -0.24900601   -0.08440974   -0.08743148    0.08966154   -0.25126259   -0.16432853   -0.12037064
    7   -0.15411579    0.01510083   -0.01072792   -0.01390660    0.03015533    0.04316714    0.16238591    0.04967398
    8   -0.00402744   -0.07617990    0.05921152   -0.11640429    0.11806930   -0.15365447    0.02179016   -0.11150607
    9   -0.00213766    0.04969460   -0.06647541    0.12494134   -0.12309270    0.17187531   -0.02085395    0.13320252
   10   -0.10225322    0.01657911   -0.01451535    0.00739870    0.00039369    0.04964106    0.06893410    0.06069401
   11    0.18366932    0.04651836    0.08250653    0.01851086   -0.04787130   -0.04200249   -0.18627238   -0.07617362
   12   -0.25271196   -0.20760989   -0.11179525   -0.14169003    0.19499141   -0.13936243    0.20807856   -0.03799774
   13   -0.08521328    0.02426612   -0.01839718   -0.04322198    0.08775380    0.12623533    0.41692190    0.07411603
   14   -0.01329530   -0.23262089    0.01823941   -0.16757573    0.24372570   -0.32657669    0.05253077   -0.14674756
   15    0.00719740    0.32949139    0.49084054   -0.05562391   -0.00250389   -0.00318698    0.00933270   -0.18028438
   16    0.02363882   -0.00634938    0.00862090    0.01534266   -0.02407717   -0.01539018   -0.05940696    0.00463507
   17    0.06349919   -0.08856296    0.02498570   -0.01114364    0.00490171   -0.16818914   -0.23535140   -0.06547080
   18    0.31903970   -0.00641206    0.32809080   -0.08842604    0.03188048   -0.15295172    0.09428596    0.36394447
   19    0.02614359   -0.00004528    0.00283759    0.00908164   -0.02381990   -0.03036482   -0.07038709   -0.01533080
   20   -0.07028927   -0.06189630   -0.00317664   -0.07678232    0.13375021   -0.01487122    0.25326629    0.00884503
   21   -0.32346449    0.05214004    0.28714804   -0.15876276    0.15770831   -0.03795666   -0.11053790    0.13289518
   22   -0.15892101    0.00064591    0.01609270    0.05156149   -0.13026516   -0.16973274   -0.27927637    0.09136800
   23   -0.02706031   -0.33306451   -0.04669725    0.25935950   -0.12105847    0.35383898   -0.05711966    0.03955767
   24    0.02973157    0.31946300   -0.43071353    0.01360140   -0.14254850    0.01512476    0.02708191   -0.31292859
   25    0.05097217    0.00531327    0.00218454   -0.02386595    0.02561976    0.03907818    0.05367436   -0.01988273
   26   -0.13029697   -0.10588547   -0.01401942    0.13221832   -0.10883790   -0.00801631   -0.18168996    0.07191683
   27   -0.28487948    0.07867208   -0.28708283   -0.23508599    0.10176046    0.07916490   -0.22596863    0.22848432
   28    0.04529905    0.00002879   -0.00646695   -0.00538830    0.03006615    0.01916489    0.04407800   -0.00210345
   29    0.11169526   -0.09787718   -0.03030080    0.05850608    0.06457056    0.19816528    0.15248350   -0.03787864
   30    0.32446052   -0.01483398   -0.22920291   -0.09975432   -0.18389718   -0.15686524    0.16722076    0.55782723
   31    0.24225804   -0.02045348    0.00372306   -0.06602550    0.13053136    0.19436948    0.11468130   -0.16982975
   32    0.03057067    0.43878921   -0.24019505    0.14762137    0.17273727   -0.32731616    0.05944146    0.06814640
   33   -0.01794763   -0.13528294    0.08958873    0.55283274    0.29962732   -0.02228287    0.01676094   -0.07415540
   34   -0.12353209   -0.00640999    0.01217557    0.03542984   -0.05632013   -0.06320373   -0.01928384    0.03899998
   35    0.25823966    0.12789223   -0.08684481   -0.04294789    0.18357795    0.07143088    0.07304933   -0.08925973
   36   -0.08312093   -0.05619899    0.03693926    0.03735809    0.37600321    0.17817343   -0.25991264    0.26432499
   37   -0.11535544   -0.00968361    0.00543929    0.01926448   -0.06758997   -0.05240593   -0.01326980    0.00775903
   38   -0.24449589    0.11669597   -0.06336731    0.08394463   -0.11343288   -0.25521159   -0.03674844    0.10571231
   39    0.07281971   -0.13267562    0.10671363    0.24989532   -0.01948670   -0.19574098    0.16494629    0.22137777
   40   -0.03979143    0.03044274   -0.01742692    0.00518532    0.02542413   -0.03623830   -0.03660696    0.06806064
   41   -0.01431492   -0.14222362    0.05564545   -0.27050778   -0.22115730    0.12362816   -0.00526114   -0.07017166
   42   -0.04346220   -0.16116809    0.09223416   -0.34543773   -0.34464006    0.00619936    0.05404782   -0.04104472
   43   -0.06706791   -0.05014796    0.03812167    0.06691377   -0.16183681   -0.09200178    0.07898389   -0.04973788
   44    0.06241205    0.02945168   -0.03459963   -0.14898314    0.12919352    0.12253706   -0.09875388    0.05772584
   45    0.13435862    0.09926821   -0.07732079   -0.25947335    0.34596386    0.24794510   -0.20704451    0.12672539
             25            26            27            28            29            30            31            32
    1    0.18523162   -0.09039760    0.02243119   -0.00220583   -0.00657498   -0.00159396   -0.00293773   -0.02062017
    2    0.06990681    0.02312231   -0.10839059   -0.15713300    0.16878479    0.01059730    0.08932637    0.07993079
    3    0.02676088    0.01121434    0.01003187    0.10850924   -0.38164264    0.02503465    0.02429936    0.04325171
    4   -0.04877036   -0.00344307    0.06586659    0.11684187   -0.11722882   -0.02794294   -0.20399824   -0.20049640
    5   -0.12671251    0.03769210    0.06243350    0.12566835   -0.09409144   -0.03961845   -0.28487495   -0.27769773
    6    0.07300318   -0.06956745   -0.04760972   -0.18112468    0.41741202   -0.01094568   -0.03762884   -0.01621328
    7   -0.08588443    0.00780533   -0.00938029   -0.00992045    0.01076930   -0.00086710   -0.00321813    0.06883674
    8   -0.05523927   -0.02045164    0.12470930    0.21532039   -0.36785971    0.01197441    0.14578625    0.19922993
    9    0.05944507    0.02351090   -0.11345363   -0.16344980    0.20389271    0.00081686   -0.09515956   -0.12620133
   10   -0.01097795    0.01954456   -0.07434841   -0.12383828    0.12354412    0.03044349    0.22019642    0.22791077
   11    0.08828070   -0.05491031    0.07829855    0.11236135   -0.08772664   -0.03908239   -0.27242539   -0.29561991
   12   -0.11199159    0.05504264   -0.06746476   -0.16598360    0.41921502   -0.00804477   -0.03998116   -0.11562346
   13   -0.04236812   -0.11816618    0.01965840   -0.01633046   -0.00314922   -0.00277120    0.00364604   -0.00590657
   14   -0.04531518   -0.02237890   -0.00346926   -0.01685762   -0.02256618    0.02105049   -0.17850511    0.01598460
   15   -0.10978437   -0.04851794    0.27909794    0.27219611    0.26808945   -0.15346607    0.04102116    0.08430317
   16    0.00374188    0.01154592    0.00069895    0.01854050   -0.00949060   -0.00729311    0.29933490    0.01207054
   17    0.01424447    0.06161286   -0.00343472    0.03521009   -0.02411451   -0.00314542    0.39424742    0.02898554
   18   -0.28077168    0.43607002   -0.36306551   -0.21102217   -0.21173802    0.10963873   -0.03401358   -0.06065297
   19   -0.00057131    0.01114395   -0.00882310   -0.01708994    0.01035280    0.00871072   -0.31975496   -0.01428862
   20   -0.02586947   -0.06905498    0.01611649    0.01644687   -0.02769636   -0.00408113    0.37648281    0.02345118
   21    0.56034573   -0.32724265   -0.20901854   -0.29641061   -0.22821499    0.09602136   -0.03532584   -0.04902832
   22   -0.28441923    0.02597067   -0.06664608    0.02206225    0.00146731    0.00080542   -0.00011082    0.00149338
   23   -0.03237848   -0.00224492    0.09643274    0.01665074    0.03886464    0.05524206    0.10938198   -0.23236983
   24   -0.12255909   -0.03103720   -0.04710226   -0.24773751   -0.11441929    0.33988694   -0.01339859    0.00560520
   25    0.03437322   -0.00152241    0.02738548    0.01286880    0.00411049    0.05101823    0.18646752   -0.33948291
   26   -0.15565466    0.01539245   -0.04774187   -0.00155379    0.00882545   -0.05812357   -0.22035381    0.39108780
   27    0.29369852    0.53886888   -0.01651197    0.27855564    0.10118985   -0.24277381    0.01312920   -0.00530350
[...]
           HX7             -0.01423     0.00485    -0.28989    -0.09597    -0.15071
           HY7              0.02336    -0.03551     0.32493     0.10760    -0.11627
           HZ7             -0.04884     0.03466     0.04565     0.00771     0.00093
           CX8              0.00043     0.00092     0.00011     0.00043    -0.04005
           CY8             -0.06708     0.00736    -0.02859    -0.02022    -0.04885
           CZ8              0.00162    -0.00061     0.01770     0.00766    -0.00040
           HX9             -0.33816     0.03415    -0.14744    -0.11672     0.64284
           HY9              0.38957    -0.04168     0.17215     0.13854     0.48896
           HZ9             -0.00528     0.03101    -0.02798    -0.03274    -0.00156
           HX10             0.32562    -0.03818     0.14146     0.11091    -0.15694
           HY10             0.41423    -0.04595     0.18306     0.14435     0.09072
           HZ10            -0.00781    -0.02634    -0.02581    -0.02541     0.00143
           CX11             0.00103     0.00272    -0.00056     0.00055     0.02723
           CY11             0.01404    -0.00156     0.02268    -0.07722    -0.02187
           CZ11            -0.01726     0.00168    -0.01019    -0.01392     0.00036
           HX12             0.08490    -0.01191     0.13142    -0.39915     0.03091
           HY12            -0.09861     0.01792    -0.15976     0.47965     0.01300
           HZ12             0.03173    -0.00805     0.00429     0.07096     0.00161
           HX13            -0.08167     0.00954    -0.12506     0.38100    -0.35963
           HY13            -0.10545     0.00899    -0.16333     0.49867     0.24750
           HZ13             0.03269     0.00337     0.00857     0.07350    -0.00924
           OX14            -0.00060    -0.00027     0.00026     0.00052    -0.00013
           OY14             0.00122    -0.00022     0.00250    -0.00568    -0.00003
           OZ14             0.00410    -0.00018     0.00137    -0.00120    -0.00011
           HX15            -0.00114     0.00142    -0.00263     0.00103     0.00171
           HY15             0.00318    -0.00214     0.00621    -0.00774     0.00019
           HZ15            -0.00235    -0.00347     0.00661     0.00234     0.00224

                             31 A        32 A        33 A        34 A        35 A  
 Wavenumbers [cm-1]         3138.58     3148.97     3156.84     3167.99     3189.84
 Intensities [km/mol]          0.00        0.00        0.00        0.00        0.00
 Intensities [relative]        0.00        0.00        0.00        0.00        0.00
           CX1             -0.00131     0.00114    -0.00183     0.02054     0.02990
           CY1              0.00407     0.00221    -0.03388    -0.00036    -0.00068
           CZ1             -0.00076    -0.01684     0.03321     0.00494    -0.00187
           HX2              0.04564     0.12001    -0.45778    -0.16781    -0.18675
           HY2             -0.03008    -0.08099     0.30238     0.11627     0.12916
           HZ2              0.00250     0.00124    -0.01539    -0.00550    -0.00527
           HX3             -0.00032    -0.00413     0.00666     0.00652     0.00796
           HY3              0.00114     0.15172    -0.26237    -0.04196     0.01621
           HZ3             -0.00067     0.19506    -0.34811    -0.05728     0.02266
           HX4             -0.02760    -0.12997     0.47385    -0.08734    -0.17560
           HY4             -0.01952    -0.09983     0.35686    -0.06948    -0.13881
           HZ4              0.00127     0.00226    -0.01828     0.00309     0.00644
           CX5              0.01179    -0.00811     0.00517    -0.07394    -0.03238
           CY5             -0.01824     0.05837     0.02159    -0.00766     0.00148
           CZ5              0.00061     0.00040    -0.00156     0.00050    -0.00034
           HX6             -0.22966     0.54021     0.14073     0.40427     0.21721
           HY6              0.15622    -0.36345    -0.09455    -0.29198    -0.15439
           HZ6             -0.00274    -0.00173     0.00160     0.00053    -0.00389
           HX7              0.08761    -0.44150    -0.20360     0.48431     0.16839
           HY7              0.06155    -0.32789    -0.15630     0.38450     0.13536
           HZ7             -0.00105     0.00089     0.00324    -0.00301     0.00189
           CX8             -0.01125     0.01174    -0.00550     0.02992    -0.06609
           CY8             -0.03176    -0.00171    -0.00568    -0.02251     0.02264
           CZ8              0.00108    -0.00041    -0.00027    -0.00024     0.00073
           HX9              0.32567    -0.05588     0.07584     0.01407     0.18534
           HY9              0.24453    -0.04500     0.05856     0.00161     0.15455
           HZ9             -0.00331     0.00059     0.00089     0.00214    -0.00006
           HX10            -0.19499    -0.08754    -0.00981    -0.37868     0.60241
           HY10             0.12660     0.06280     0.00552     0.26322    -0.42244
           HZ10             0.00287     0.00206     0.00172     0.00259    -0.00825
           CX11            -0.03953    -0.01862    -0.00573     0.00216     0.01099
           CY11             0.04406     0.01480     0.00583    -0.00196     0.01831
           CZ11            -0.00525    -0.00163    -0.00081    -0.00054    -0.00079
           HX12            -0.16118    -0.01912    -0.01555     0.00602    -0.22150
           HY12            -0.10529    -0.00920    -0.01002     0.00462    -0.16248
           HZ12             0.00210     0.00091     0.00011    -0.00002     0.00557
           HX13             0.62862     0.24157     0.08282    -0.02682     0.08436
           HY13            -0.43047    -0.16751    -0.05709     0.01730    -0.05387
           HZ13             0.02240     0.00967     0.00324    -0.00043     0.00406
           OX14             0.00026     0.00011     0.00001    -0.00007     0.00007
           OY14             0.00095     0.00010     0.00007     0.00018    -0.00020
           OZ14             0.00145     0.00058     0.00043     0.00014     0.00019
           HX15             0.00188    -0.00047     0.00049     0.00045     0.00260
           HY15             0.00243     0.00057     0.00056    -0.00009     0.00278
           HZ15             0.00497    -0.00022     0.00020     0.00018     0.00090

                             36 A        37 A        38 A        39 A  
 Wavenumbers [cm-1]         3216.75     3220.26     3231.30     4178.01
 Intensities [km/mol]          0.00        0.00        0.00        0.00
 Intensities [relative]        0.00        0.00        0.00        0.00
           CX1             -0.07506     0.02546    -0.01511     0.00001
           CY1             -0.02269    -0.06712    -0.00135     0.00004
           CZ1             -0.01588    -0.04913    -0.00105     0.00000
           HX2              0.39319    -0.42029     0.09289     0.00006
           HY2             -0.28095     0.27245    -0.06562    -0.00006
           HZ2              0.01446    -0.02740     0.00488    -0.00000
           HX3             -0.01948    -0.00816    -0.00279    -0.00001
           HY3              0.14603     0.45385     0.00972    -0.00002
           HZ3              0.20159     0.62541     0.01460     0.00030
           HX4              0.52160     0.12453     0.09271    -0.00020
           HY4              0.40580     0.07663     0.07360    -0.00017
           HZ4             -0.02798    -0.01490    -0.00617     0.00002
           CX5             -0.02825     0.00881    -0.01639     0.00002
           CY5             -0.00306    -0.00826    -0.00256    -0.00008
           CZ5              0.00001    -0.00014     0.00003     0.00004
           HX6              0.15192    -0.11585     0.08383    -0.00011
           HY6             -0.10817     0.08145    -0.06057     0.00012
           HZ6              0.00156    -0.00145    -0.00140    -0.00002
           HX7              0.17917     0.01274     0.11177    -0.00009
           HY7              0.14188     0.00911     0.08907    -0.00005
           HZ7             -0.00379    -0.00040     0.00203     0.00017
           CX8             -0.01032     0.00499    -0.02602     0.00021
           CY8              0.00182    -0.00230     0.00325     0.00042
           CZ8              0.00029     0.00020    -0.00015     0.00007
           HX9              0.04426    -0.00672     0.12129    -0.00155
           HY9              0.03597    -0.00614     0.09710    -0.00043
           HZ9              0.00336     0.00040    -0.00234    -0.00091
           HX10             0.08051    -0.05329     0.18414     0.00001
           HY10            -0.05742     0.03749    -0.13044    -0.00022
           HZ10            -0.00367     0.00280    -0.00063    -0.00023
           CX11             0.01916    -0.00394    -0.07150    -0.00164
           CY11             0.01139    -0.00380    -0.03352    -0.00055
           CZ11            -0.00073     0.00036     0.00240     0.00098
           HX12            -0.20454     0.05415     0.68619     0.00954
           HY12            -0.15119     0.04002     0.51014     0.00591
           HZ12             0.00717    -0.00232    -0.03142     0.00004
           HX13            -0.02074    -0.00784     0.15493     0.00110
           HY13             0.01730     0.00496    -0.11737     0.00118
           HZ13            -0.00078    -0.00102     0.01059     0.00196
           OX14            -0.00027     0.00005     0.00137    -0.04820
           OY14            -0.00010     0.00006     0.00030    -0.03667
           OZ14             0.00019    -0.00011    -0.00069    -0.00411
           HX15             0.00312    -0.00070    -0.01055     0.77287
           HY15             0.00162    -0.00064    -0.00337     0.57762
           HZ15            -0.00073     0.00051     0.00617     0.05080


 Normal Modes of low/zero frequencies

                                  1           2           3           4           5
 Wavenumbers [cm-1]            0.00        0.00        0.00        0.00        0.00
 Intensities [km/mol]          0.00        0.00        0.00        0.00        0.00
 Intensities [relative]        0.00        0.00        0.00        0.00        0.00
           CX1             -0.00000    -0.00000     0.20784     0.00000     0.00000
           CY1              0.18898    -0.02775     0.00060     0.03700     0.01480
           CZ1              0.01616    -0.05234    -0.00051    -0.01889     0.01324
           HX2              0.01949     0.09554     0.24511     0.00104    -0.02538
           HY2              0.22003     0.11331     0.05166     0.03815    -0.01941
           HZ2              0.04793    -0.03642    -0.04388    -0.02365     0.04975
           HX3             -0.01921    -0.11778     0.21445    -0.01165    -0.00223
           HY3              0.23545    -0.03396    -0.00042     0.01548     0.02868
           HZ3             -0.01760    -0.05027     0.00035    -0.00368     0.00322
           HX4              0.02115     0.10372     0.24821     0.00115    -0.02749
           HY4              0.16449    -0.16322    -0.04829     0.03351     0.04904
           HZ4              0.05249    -0.07241     0.04102    -0.04481    -0.00302
           CX5             -0.02778    -0.10547     0.09841     0.01231     0.07158
           CY5              0.11994    -0.02692    -0.00088     0.06808    -0.00330
           CZ5             -0.02834    -0.04966     0.00074     0.00114    -0.00003
           HX6             -0.04776    -0.20468     0.06253     0.01067     0.09614
           HY6              0.09173    -0.16688    -0.05147     0.06577     0.03132
           HZ6             -0.06103    -0.06536     0.04372     0.00641    -0.03655
           HX7             -0.04922    -0.21181     0.05967     0.01061     0.09808
           HY7              0.14673     0.10761     0.04774     0.07044    -0.03666
           HZ7             -0.06523    -0.02965    -0.04055     0.02726     0.01592
           CX8             -0.00208     0.05440     0.08538     0.02892     0.07720
           CY8              0.05290    -0.01853     0.00039     0.09906    -0.02315
           CZ8              0.01698    -0.05248    -0.00033    -0.01931     0.01335
           HX9              0.01925     0.16036     0.12367     0.03068     0.05099
           HY9              0.02563    -0.15391    -0.04854     0.09682     0.01034
           HZ9              0.05371    -0.07259     0.04123    -0.04541    -0.00282
           HX10             0.01786     0.15381     0.12053     0.03072     0.05310
           HY10             0.08030     0.12131     0.05091     0.10172    -0.05794
           HZ10             0.04964    -0.03680    -0.04325    -0.02457     0.04982
           CX11            -0.02974    -0.05059    -0.02365     0.04120     0.14851
           CY11            -0.01578    -0.01698    -0.00082     0.13005    -0.04138
           CZ11            -0.02734    -0.04971     0.00070     0.00069     0.00028
           HX12            -0.05053    -0.15301    -0.06251     0.03986     0.17502
           HY12             0.00986     0.11921     0.04836     0.13310    -0.07553
           HZ12            -0.06310    -0.02959    -0.04108     0.02641     0.01685
           HX13            -0.04985    -0.14994    -0.06066     0.03977     0.17379
           HY13            -0.04499    -0.15673    -0.05136     0.12821    -0.00708
           HZ13            -0.06021    -0.06538     0.04363     0.00605    -0.03626
           OX14            -0.00592     0.09715    -0.03488     0.05639     0.15318
           OY14            -0.07540    -0.00159     0.00313     0.15845    -0.06141
           OZ14             0.01460    -0.05133    -0.00266    -0.01770     0.01416
           HX15             0.01180     0.18621    -0.00501     0.05832     0.13263
           HY15            -0.10156    -0.12029    -0.03983     0.15750    -0.03263
           HZ15             0.04521    -0.06887     0.03384    -0.03987    -0.00049

                                  6
 Wavenumbers [cm-1]            0.00
 Intensities [km/mol]          0.00
 Intensities [relative]        0.00
           CX1              0.00000
           CY1             -0.00955
           CZ1              0.10169
           HX2              0.04975
           HY2              0.06361
           HZ2              0.10642
           HX3             -0.05977
           HY3             -0.01576
           HZ3              0.10493
           HX4              0.05401
           HY4             -0.08015
           HZ4              0.09043
           CX5             -0.05694
           CY5             -0.00481
           CZ5              0.10594
           HX6             -0.10851
           HY6             -0.07757
           HZ6              0.10136
           HX7             -0.11222
           HY7              0.06514
           HZ7              0.11721
           CX8              0.02407
           CY8              0.00383
           CZ8              0.10157
           HX9              0.07916
           HY9             -0.06655
           HZ9              0.09027
           HX10             0.07573
           HY10             0.07657
           HZ10             0.10614
           CX11            -0.03260
           CY11             0.00893
           CZ11             0.10584
           HX12            -0.08590
           HY12             0.07984
           HZ12             0.11709
           HX13            -0.08428
           HY13            -0.06365
           HZ13             0.10130
           OX14             0.04228
           OY14             0.02084
           OZ14             0.10224
           HX15             0.08851
           HY15            -0.04073
           HZ15             0.09248


 Frequencies dumped to record   5400.2

 Zero point energy:  0.14575129 [H]    31988.71 [1/CM]      382.67 [KJ/MOL]
 Frequency information read from record  5400.2


 **********************************************************************************************************************************
 DATASETS  * FILE   NREC   LENGTH (MB)   RECORD NAMES
              1      18       29.62       500      610      700      900      950      970     1000      129      960     1100   
                                          VAR    BASINP    GEOM    SYMINP    ZMAT    AOBASIS   BASIS     P2S    ABASIS      S 
                                         1400     1410     1200     1210     1080     1600     1650     1700   
                                           T        V       H0       H01     AOSYM     SMH    MOLCAS    OPER   

              2       7        1.28       700     1000      520     2100     5300     5450     5400   
                                         GEOM     BASIS   MCVARS     RHF     HESS     NMOD     FREQ   

              4       5       15.66      4100     4000     4200     4300     4400   

 PROGRAMS   *        TOTAL      FREQ      OPTG    HF-SCF       INT
 CPU TIMES  *     15784.55   1710.33  13126.08    941.67      6.12
 REAL TIME  *      7298.26 SEC
 DISK USED  *        32.18 MB (local),      858.24 MB (total)
 SF USED    *        15.66 MB
 GA USED    *         0.00 MB       (max)       0.00 MB       (current)
 **********************************************************************************************************************************

 Dump information in style MOLDEN to butanolgauche.molden                                                            

 Molecular orbitals read from record     2100.2  Type=RHF/CANONICAL  
 Occupation numbers read from record     2100.2  Type=RHF/RHF  
 Orbital energies read from record       2100.2  Type=RHF/CANONICAL  
 Redundancy group numbers read from rec  2100.2  Type=RHF/RHF  

 DUMP ORBITAL  1.1 AS ORBITAL    1  occ=    2.0000  eig=  -20.5401  GROUP=   2
 DUMP ORBITAL  2.1 AS ORBITAL    2  occ=    2.0000  eig=  -11.2666  GROUP=   2
 DUMP ORBITAL  3.1 AS ORBITAL    3  occ=    2.0000  eig=  -11.2220  GROUP=   2
 DUMP ORBITAL  4.1 AS ORBITAL    4  occ=    2.0000  eig=  -11.2170  GROUP=   2
 DUMP ORBITAL  5.1 AS ORBITAL    5  occ=    2.0000  eig=  -11.2132  GROUP=   2
 DUMP ORBITAL  6.1 AS ORBITAL    6  occ=    2.0000  eig=   -1.3625  GROUP=   2
 DUMP ORBITAL  7.1 AS ORBITAL    7  occ=    2.0000  eig=   -1.0742  GROUP=   2
 DUMP ORBITAL  8.1 AS ORBITAL    8  occ=    2.0000  eig=   -0.9764  GROUP=   2
 DUMP ORBITAL  9.1 AS ORBITAL    9  occ=    2.0000  eig=   -0.8642  GROUP=   2
 DUMP ORBITAL 10.1 AS ORBITAL   10  occ=    2.0000  eig=   -0.8046  GROUP=   2
 DUMP ORBITAL 11.1 AS ORBITAL   11  occ=    2.0000  eig=   -0.6942  GROUP=   2
 DUMP ORBITAL 12.1 AS ORBITAL   12  occ=    2.0000  eig=   -0.6426  GROUP=   2
 DUMP ORBITAL 13.1 AS ORBITAL   13  occ=    2.0000  eig=   -0.6129  GROUP=   2
 DUMP ORBITAL 14.1 AS ORBITAL   14  occ=    2.0000  eig=   -0.6004  GROUP=   2
 DUMP ORBITAL 15.1 AS ORBITAL   15  occ=    2.0000  eig=   -0.5540  GROUP=   2
 DUMP ORBITAL 16.1 AS ORBITAL   16  occ=    2.0000  eig=   -0.5421  GROUP=   2
 DUMP ORBITAL 17.1 AS ORBITAL   17  occ=    2.0000  eig=   -0.5163  GROUP=   2
 DUMP ORBITAL 18.1 AS ORBITAL   18  occ=    2.0000  eig=   -0.4818  GROUP=   2
 DUMP ORBITAL 19.1 AS ORBITAL   19  occ=    2.0000  eig=   -0.4777  GROUP=   2
 DUMP ORBITAL 20.1 AS ORBITAL   20  occ=    2.0000  eig=   -0.4665  GROUP=   2
 DUMP ORBITAL 21.1 AS ORBITAL   21  occ=    2.0000  eig=   -0.4290  GROUP=   2

 Total charge:      42.000000
 Frequency information read from record  5400.2

 **********************************************************************************************************************************

 HF/6-311G(D,P)//HF/6-311G(D,P) energy=   -232.213566774047

    OPTG(HF-SCF)          HF-SCF
   -232.21356677   -232.01269314
 **********************************************************************************************************************************
 Molpro calculation terminated
