
 Working directory              : /tmp/zwa/molpro.oDAUGHLy3s/
 Global scratch directory       : /tmp/zwa/molpro.oDAUGHLy3s/
 Wavefunction directory         : /home/zwa/wfu/
 Main file repository           : /tmp/zwa/molpro.oDAUGHLy3s/

 id        : liedlgroup

 Nodes     nprocs
 rh2-c724     4
 GA implementation: MPI file
 GA implementation (serial work in mppx): MPI file

 Using customized tuning parameters: mindgm=1; mindgv=20; mindgc=4; mindgr=1; noblas=0; minvec=7
 default implementation of scratch files=sf  


 Variables initialized (1025), CPU time= 0.00 sec
 memory, 2000, m
  orient,mass
  geometry = {
 C,                 -3.56962016,   -0.0886075,  0.00000000
 C,                -2.17446016  , -0.08860759 ,  0.00000000
 C ,                -1.47692216  ,  1.11914341,   0.00000000
 C  ,               -2.17457616   , 2.32765241,  -0.00119900
 C   ,              -3.56940116    ,2.32757441,  -0.00167800
 C    ,             -4.26700216   , 1.11936841,  -0.00068200
 H     ,            -4.11937916   ,-1.04092459,   0.00045000
 H     ,            -1.62495216  , -1.04112059,  0.00131500
 H     ,            -0.37724216  ,  1.11922341,   0.00063400
 H      ,           -4.11952316  ,  3.27985541,  -0.00263100
 H      ,           -5.36660616  ,  1.11955141,  -0.00086200
 C      ,            2.10126577   , 0.62025316, -0.00056443
 C      ,            3.49642577  ,  0.62025316, -0.00056443
 C       ,           4.19396377  ,  1.82800416, -0.00056443
 C        ,          3.49630977  ,  3.03651316,  -0.00176343
 C         ,         2.10148477  ,  3.03643516, -0.00224243
 C         ,         1.40388377  ,  1.82822916, -0.00124643
 H          ,        1.55150677  , -0.33206384,  -0.00011443
 H           ,       4.04593377  , -0.33225984,  0.00075057
 H            ,      5.29364377  ,  1.82808416,  0.00006957
 H             ,     4.04650977  ,  3.98865616,  -0.00182243
 H              ,    0.30427977  ,  1.82841216,  -0.00142643
 C               ,  -0.28806584  ,  3.87860077,   -0.00084664
 O                , -0.61266254   , 5.56297609,   -0.00081528
 }
 
  mass, iso
  basis=6-311g(d,p)
 
  {hf
  start,atden}
 
  optg
  {frequencies, symm=auto, print=0,analytical}
  put,molden,benzophenone.molden
 Commands initialized (840), CPU time= 0.00 sec, 684 directives.
 Default parameters read. Elapsed time= 0.09 sec

 Checking input...
 Passed
1


                                         ***  PROGRAM SYSTEM MOLPRO  ***
                                       Copyright, TTI GmbH Stuttgart, 2015
                                    Version 2022.3 linked Wed Nov 30 12:40:34 2022


 **********************************************************************************************************************************
 LABEL *                                                                                 
  (8 PROC) 64 bit mpp version                                                            DATE: 07-Aug-25          TIME: 14:35:24  
 **********************************************************************************************************************************

 SHA1:             e31ec9a5ea85254ab76f59d122cbdd51c71cf98b
 **********************************************************************************************************************************

 Memory per process:      2000 MW
 Total memory per node:   8000 MW

 GA preallocation disabled
 GA check disabled

 Variable memory set to 2000.0 MW

 ZCENTRE=MASS


 Geometry recognized as XYZ



 Using masses of most abundant isotopes

 **********************************************************************************************************************************
 SETTING BASIS          =    6-311G(D,P)


 Recomputing integrals since basis changed


 Using spherical harmonics

 Library entry C      S 6-311G               selected for orbital group  1
 Library entry C      P 6-311G               selected for orbital group  1
 Library entry C      D 6-311G*              selected for orbital group  1
 Library entry H      S 6-311G               selected for orbital group  2
 Library entry H      P 6-311G**             selected for orbital group  2
 Library entry O      S 6-311G               selected for orbital group  6
 Library entry O      P 6-311G               selected for orbital group  6
 Library entry O      D 6-311G*              selected for orbital group  6


 PROGRAM * SEWARD (Integral evaluation for generally contracted gaussian basis sets)     Author: Roland Lindh, 1990

 Geometry written to block  1 of record 700

 Orientation using atomic masses  
 Molecule type: Asymmetric top
 Rotational constants:       0.3492627      0.2641797      1.0844481 GHz

 Point group  C1  



 ATOMIC COORDINATES

 NR  ATOM    CHARGE       X              Y              Z

   1  C       6.00   -3.071967401    0.000453186   -6.968420368
   2  C       6.00   -3.388256670    0.000546872   -4.350990955
   3  C       6.00   -1.280556284    0.001123054   -2.768552430
   4  C       6.00    1.144863035   -0.000659901   -3.803431389
   5  C       6.00    1.460930059   -0.001658778   -6.420249962
   6  C       6.00   -0.647610085   -0.000352996   -8.002909949
   7  H       1.00   -4.733956139    0.000849257   -8.215705948
   8  H       1.00   -5.299822134    0.002651287   -3.536010061
   9  H       1.00   -1.529708912    0.002395020   -0.705448559
  10  H       1.00    3.372199315   -0.003079255   -7.236435406
  11  H       1.00   -0.397981472   -0.000766906  -10.065811669
  12  C       6.00   -3.027704635    0.000078057    3.831307778
  13  C       6.00   -3.343993734    0.000171743    6.448737211
  14  C       6.00   -1.236293349    0.000747925    8.031175736
  15  C       6.00    1.189125971   -0.001035030    6.996296778
  16  C       6.00    1.505192994   -0.002033907    4.379478205
  17  C       6.00   -0.603347150   -0.000728125    2.796818217
  18  H       1.00   -4.689693204    0.000474128    2.584022218
  19  H       1.00   -5.255559198    0.002276158    7.263718105
  20  H       1.00   -1.485445976    0.002019891   10.094279607
  21  H       1.00    2.850687958   -0.000692265    8.244370194
  22  H       1.00   -0.353718537   -0.001142035    0.733916497
  23  C       6.00    3.626882965    0.000812404    0.087416681
  24  O       8.00    6.860490442    0.001588110   -0.139696667

 Bond lengths in Bohr (Angstrom)

 1-2  2.636470300  1-6  2.635844786  1-7  2.077962473  2-3  2.635623822  2-8  2.078047355
     ( 1.395160000)     ( 1.394828992)     ( 1.099610386)     ( 1.394712063)     ( 1.099655303)

  3- 4  2.636974879   3- 9  2.078094376   4- 5  2.635837401   5- 6  2.636428622   5-10  2.078247066
       ( 1.395427011)       ( 1.099680186)       ( 1.394825084)       ( 1.395137945)       ( 1.099760986)

  6-11  2.077950462  12-13  2.636470300  12-17  2.635844934  12-18  2.077962326  13-14  2.635623822
       ( 1.099604030)       ( 1.395160000)       ( 1.394829070)       ( 1.099610308)       ( 1.394712063)

 13-19  2.078047355  14-15  2.636974879  14-20  2.078094376  15-16  2.635837401  15-21  2.078094225
       ( 1.099655303)       ( 1.395427011)       ( 1.099680186)       ( 1.394825084)       ( 1.099680106)

 16-17  2.636428622  17-22  2.077950462  23-24  3.241573444
       ( 1.395137945)       ( 1.099604030)       ( 1.715366794)

 Bond angles

  1- 2- 3  120.00862852   1- 2- 8  119.98077409   1- 6- 5  120.00002087   1- 6-11  120.00799887

  2-1-6  119.99846235   2-1-7  119.99721709   2-3-4  119.99416459   2-3-9  120.01279489

  3-2-8  120.01055010   3-4-5  119.99399231   4-3-9  119.99303787   4-5-6  120.00470467

  4- 5-10  120.01134336   5- 6-11  119.99197526   6- 1- 7  120.00432035   6- 5-10  119.98395077

 12-13-14  120.00863221  12-13-19  119.98077039  12-17-16  120.00002272  12-17-22  120.00799702

 13-12-17  119.99845680  13-12-18  119.99722313  13-14-15  119.99416459  13-14-20  120.01279489

 14-13-19  120.01055010  14-15-16  119.99399231  14-15-21  119.98114211  15-14-20  119.99303787

 15-16-17  120.00470467  16-15-21  120.02485852  16-17-22  119.99197526  17-12-18  120.00431986

 NUCLEAR CHARGE:                   96
 NUMBER OF PRIMITIVE AOS:         528
 NUMBER OF SYMMETRY AOS:          514
 NUMBER OF CONTRACTIONS:          312   (  312A   )
 NUMBER OF INNER CORE ORBITALS:     0   (    0A   )
 NUMBER OF OUTER CORE ORBITALS:    14   (   14A   )
 NUMBER OF VALENCE ORBITALS:       66   (   66A   )


 NUCLEAR REPULSION ENERGY  704.99279504


 Eigenvalues of metric

         1 0.205E-03 0.266E-03 0.782E-03 0.120E-02 0.135E-02 0.167E-02 0.200E-02 0.235E-02


 Contracted 2-electron integrals neglected if value below      1.0D-11
 AO integral compression algorithm  1   Integral accuracy      1.0D-11

     1291.846 MB (compressed) written to integral file ( 16.1%)

     Node minimum: 315.884 MB, node maximum: 329.515 MB


 NUMBER OF SORTED TWO-ELECTRON INTEGRALS:  298046112.     BUFFER LENGTH:  32768
 NUMBER OF SEGMENTS:  10  SEGMENT LENGTH:   31999984      RECORD LENGTH: 524288

 Memory used in sort:      32.56 MW

 SORT1 READ   999479857. AND WROTE    85427070. INTEGRALS IN    249 RECORDS. CPU TIME:     9.74 SEC, REAL TIME:    10.61 SEC
 SORT2 READ   341399856. AND WROTE  1192111206. INTEGRALS IN   4868 RECORDS. CPU TIME:     2.13 SEC, REAL TIME:     2.82 SEC

 Node minimum:   298009491.  Node maximum:   298046112. integrals

 OPERATOR DM      FOR CENTER  0  COORDINATES:    0.000000    0.000000    0.000000


 **********************************************************************************************************************************
 DATASETS  * FILE   NREC   LENGTH (MB)   RECORD NAMES
              1      18       32.42       500      610      700      900      950      970     1000      129      960     1100   
                                          VAR    BASINP    GEOM    SYMINP    ZMAT    AOBASIS   BASIS     P2S    ABASIS      S 
                                         1400     1410     1200     1210     1080     1600     1650     1700   
                                           T        V       H0       H01     AOSYM     SMH    MOLCAS    OPER   

 PROGRAMS   *        TOTAL       INT
 CPU TIMES  *        23.57     23.43
 REAL TIME  *        24.77 SEC
 DISK USED  *        33.14 MB (local),        5.07 GB (total)
 GA USED    *         0.00 MB       (max)       0.00 MB       (current)
 **********************************************************************************************************************************


 Program * Restricted Hartree-Fock

 Orbital guess generated from atomic densities.

 Initial occupancy:  48

 NELEC=   96   SYM=1   MS2= 0   THRE=1.0D-08   THRD=1.0D-06   THRG=1.0D-06  HFMA2=F  DIIS_START=2   DIIS_MAX=10   DIIS_INCORE=F

 Level shifts:    0.00 (CLOSED)    0.00 (OPEN)    0.30 (GAP_MIN)

 ITER           ETOT              DE          GRAD        DDIFF     DIIS  NEXP   TIME(IT)  TIME(TOT)  DIAG
   1     -572.07016792    -572.07016792     0.00D+00     0.25D-01     0     0     103.88    203.00    start
   2     -571.67834776       0.39182016     0.49D-02     0.82D-02     1     0     104.94    307.94    diag
   3     -572.44247675      -0.76412900     0.85D-02     0.49D-02     2     0      98.08    406.02    diag
   4     -572.45818736      -0.01571061     0.88D-03     0.11D-02     3     0     103.16    509.18    diag
   5     -572.46174808      -0.00356072     0.38D-03     0.45D-03     4     0      98.69    607.87    diag
   6     -572.46298047      -0.00123239     0.18D-03     0.22D-03     5     0      96.04    703.91    diag
   7     -572.46376110      -0.00078062     0.11D-03     0.20D-03     6     0      82.98    786.89    diag
   8     -572.46436285      -0.00060176     0.75D-04     0.21D-03     7     0     105.45    892.34    fixocc
   9     -572.46459540      -0.00023255     0.42D-04     0.13D-03     8     0      96.98    989.32    diag
  10     -572.46470253      -0.00010713     0.28D-04     0.94D-04     9     0      93.21   1082.53    diag/orth
  11     -572.46474261      -0.00004007     0.16D-04     0.74D-04     9     0      98.03   1180.56    diag
  12     -572.46474766      -0.00000505     0.68D-05     0.27D-04     9     0      96.71   1277.27    diag
  13     -572.46474809      -0.00000043     0.29D-05     0.44D-05     9     0     101.97   1379.24    diag
  14     -572.46474831      -0.00000022     0.23D-05     0.57D-05     9     0     100.28   1479.52    diag
  15     -572.46474834      -0.00000004     0.87D-06     0.16D-05     9     0      97.26   1576.78    diag
  16     -572.46474836      -0.00000002     0.45D-06     0.11D-05     9     0      97.13   1673.91    diag
  17     -572.46474837      -0.00000001     0.32D-06     0.84D-06     9     0     101.39   1775.30    diag
  18     -572.46474837      -0.00000000     0.16D-06     0.31D-06     0     0      98.66   1873.96    diag

 Final occupancy:  48

 !RHF STATE 1.1 Energy               -572.464748368806
  RHF One-electron energy           -2173.431072893382
  RHF Two-electron energy             895.973529484462
  RHF Kinetic energy                  570.842132994006
  RHF Nuclear energy                  704.992795040115
  RHF Virial quotient                  -1.002842494064

 !RHF STATE 1.1 Dipole moment          -3.30398764     0.00019818     0.05243139
 Dipole moment /Debye                  -8.39789894     0.00050371     0.13326731

 Orbital energies:

           1.1          2.1          3.1          4.1          5.1          6.1          7.1          8.1          9.1         10.1
    -20.515755   -11.428574   -11.338837   -11.338620   -11.285681   -11.282965   -11.274693   -11.272438   -11.270553   -11.269604

          11.1         12.1         13.1         14.1         15.1         16.1         17.1         18.1         19.1         20.1
    -11.268563   -11.268026   -11.267748   -11.264637    -1.188108    -1.183570    -1.142934    -1.063071    -1.045416    -1.041717

          21.1         22.1         23.1         24.1         25.1         26.1         27.1         28.1         29.1         30.1
     -1.036905    -0.886545    -0.852587    -0.843362    -0.832246    -0.771822    -0.722283    -0.708738    -0.675286    -0.654925

          31.1         32.1         33.1         34.1         35.1         36.1         37.1         38.1         39.1         40.1
     -0.653961    -0.641398    -0.630782    -0.592932    -0.569083    -0.557760    -0.539260    -0.538340    -0.536025    -0.489374

          41.1         42.1         43.1         44.1         45.1         46.1         47.1         48.1         49.1         50.1
     -0.424570    -0.394826    -0.387301    -0.373924    -0.371305    -0.370798    -0.364531    -0.309604    -0.062062     0.053077


 HOMO     48.1    -0.309604 =      -8.4248eV
 LUMO     49.1    -0.062062 =      -1.6888eV
 LUMO-HOMO         0.247542 =       6.7360eV

 Orbitals saved in record  2100.2


 **********************************************************************************************************************************
 DATASETS  * FILE   NREC   LENGTH (MB)   RECORD NAMES
              1      18       32.42       500      610      700      900      950      970     1000      129      960     1100   
                                          VAR    BASINP    GEOM    SYMINP    ZMAT    AOBASIS   BASIS     P2S    ABASIS      S 
                                         1400     1410     1200     1210     1080     1600     1650     1700   
                                           T        V       H0       H01     AOSYM     SMH    MOLCAS    OPER   

              2       4        2.26       700     1000      520     2100   
                                         GEOM     BASIS   MCVARS     RHF  

 PROGRAMS   *        TOTAL    HF-SCF       INT
 CPU TIMES  *      1897.59   1874.02     23.43
 REAL TIME  *       504.89 SEC
 DISK USED  *        41.47 MB (local),        5.10 GB (total)
 GA USED    *         0.00 MB       (max)       0.00 MB       (current)
 **********************************************************************************************************************************


 PROGRAM * OPT (Geometry optimization)     Authors: F. Eckert and H.-J. Werner


 BFGS update of hessian

 *** Long output written to logfile /home/zwa/Overlap_Integral_Project/overlap_integral_gaussian/molpro_files/benzophenone/benzophenone.log ***


 Geometry optimization using default procedure for command HF-SCF

 Geometry written to block  1 of record 700

 Entering BMAT geometry-optimization, modelhes=F

 Too few internal coordinates
 BMAT failed, using natural internal coordinates

 Making model hessian for cartesian coordinates

 Entering Rational Function Geometry Optimization

 ITER.   ENERGY(OLD)    ENERGY(NEW)      DE          GRADMAX     GRADNORM    GRADRMS     STEPMAX     STEPLEN     STEPRMS   CPU-time
   1  -572.46474837  -572.56996307    -0.10521470  0.29649318  0.34872542  0.00528372  0.24202903  0.30000000  0.06123724   1819.39
   2  -572.56996307  -572.66602962    -0.09606656  0.37584672  0.39412937  0.00597166  0.27789562  0.30000000  0.06123724   3693.46
   3  -572.66602962  -572.74071758    -0.07468796  0.36500304  0.40262939  0.00610045  0.28501982  0.30000000  0.06123724   5500.33
   4  -572.74071758  -572.76004202    -0.01932444  0.04948164  0.13037747  0.00197542  0.15186393  0.30000000  0.06123724  10425.48
   5  -572.76004202  -572.76815043    -0.00810841  0.02287348  0.05021553  0.00076084  0.21215403  0.30000000  0.06123724  14927.77
   6  -572.76815043  -572.77522663    -0.00707620  0.01568613  0.03584013  0.00054303  0.24637607  0.30000000  0.06123724  18096.87
   7  -572.77522663  -572.78197917    -0.00675254  0.01567702  0.02692645  0.00040798  0.22397992  0.30000000  0.06123724  19554.58
   8  -572.78197917  -572.78860923    -0.00663006  0.01617011  0.02565112  0.00038865  0.22501172  0.30000000  0.06123724  21033.25
   9  -572.78860923  -572.79527160    -0.00666237  0.01623160  0.02330263  0.00035307  0.22314337  0.30000000  0.06123724  22395.04
  10  -572.79527160  -572.80197767    -0.00670607  0.01615892  0.02578991  0.00039076  0.21627663  0.30000000  0.06123724  23750.70
  11  -572.80197767  -572.80872401    -0.00674633  0.01609957  0.03061865  0.00046392  0.21170280  0.30000000  0.06123724  25134.59
  12  -572.80872401  -572.81543896    -0.00671496  0.01702400  0.03806119  0.00057668  0.21157847  0.30000000  0.06123724  26534.82
  13  -572.81543896  -572.82211372    -0.00667475  0.01655993  0.04450957  0.00067439  0.21696579  0.30000000  0.06123724  27913.30
  14  -572.82211372  -572.82878036    -0.00666664  0.01985324  0.05365427  0.00081294  0.21674368  0.30000000  0.06123724  29277.85
  15  -572.82878036  -572.83544049    -0.00666013  0.02236272  0.06288022  0.00095273  0.22621106  0.30000000  0.06123724  30662.87
  16  -572.83544049  -572.84237533    -0.00693484  0.02317568  0.07231840  0.00109573  0.21640799  0.30000000  0.06123724  32079.78
  17  -572.84237533  -572.84921257    -0.00683724  0.02392462  0.08227888  0.00124665  0.22878846  0.30000000  0.06123724  33381.54
  18  -572.84921257  -572.85712224    -0.00790968  0.02608567  0.08882148  0.00134578  0.20204617  0.30000000  0.06123724  34660.69
  19  -572.85712224  -572.86603969    -0.00891745  0.02965360  0.10052583  0.00152312  0.22164042  0.30000000  0.06123724  35928.90
  20  -572.86603969  -572.87838241    -0.01234272  0.04287138  0.10627302  0.00161020  0.17940246  0.30000000  0.06123724  37336.71
  21  -572.87838241  -572.89270066    -0.01431825  0.05357671  0.10020686  0.00151829  0.19571686  0.30000000  0.06123724  38651.83
  22  -572.89270066  -572.90592908    -0.01322842  0.03318856  0.07732050  0.00117152  0.18054433  0.30000000  0.06123724  39963.75
  23  -572.90592908  -572.91658316    -0.01065408  0.02598053  0.05355967  0.00081151  0.21211730  0.30000000  0.06123724  41268.61
  24  -572.91658316  -572.92707262    -0.01048946  0.02527351  0.05060477  0.00076674  0.20503967  0.30000000  0.06123724  42493.70
  25  -572.92707262  -572.93725473    -0.01018211  0.02472981  0.04692433  0.00071097  0.21599116  0.30000000  0.06123724  43722.44
  26  -572.93725473  -572.94772374    -0.01046901  0.02461224  0.04592410  0.00069582  0.22227850  0.30000000  0.06123724  44970.91
  27  -572.94772374  -572.95828882    -0.01056508  0.02366407  0.04357997  0.00066030  0.21486621  0.30000000  0.06123724  46209.96
  28  -572.95828882  -572.96878012    -0.01049130  0.02247275  0.04199845  0.00063634  0.20801593  0.30000000  0.06123724  47437.42
  29  -572.96878012  -572.97916921    -0.01038909  0.02298643  0.04262148  0.00064578  0.20175615  0.30000000  0.06123724  48693.56
  30  -572.97916921  -572.98921411    -0.01004490  0.02321898  0.04328346  0.00065581  0.20904099  0.30000000  0.06123724  49937.06
  31  -572.98921411  -572.99898876    -0.00977465  0.02344546  0.04464902  0.00067650  0.22260034  0.30000000  0.06123724  51162.37
  32  -572.99898876  -573.00815152    -0.00916276  0.02309291  0.04162313  0.00063065  0.24040389  0.30000000  0.06123724  52416.74
  33  -573.00815152  -573.01673257    -0.00858105  0.02275046  0.03864684  0.00058556  0.25256207  0.30000000  0.06123724  53677.64
  34  -573.01673257  -573.02466302    -0.00793045  0.02225360  0.03334902  0.00050529  0.26670529  0.30000000  0.06123724  54908.79
  35  -573.02466302  -573.03209409    -0.00743107  0.02145509  0.02903441  0.00043992  0.26732854  0.30000000  0.06123724  56167.80
  36  -573.03209409  -573.03907385    -0.00697976  0.02068423  0.02569998  0.00038939  0.27234950  0.30000000  0.06123724  57434.84
  37  -573.03907385  -573.04569774    -0.00662389  0.01970913  0.02367023  0.00035864  0.26787870  0.30000000  0.06123724  58678.96
  38  -573.04569774  -573.05196299    -0.00626525  0.01885157  0.02206562  0.00033433  0.27128863  0.30000000  0.06123724  59935.43
  39  -573.05196299  -573.05790311    -0.00594012  0.01775278  0.02078794  0.00031497  0.26313524  0.30000000  0.06123724  61192.47
  40  -573.05790311  -573.06350286    -0.00559975  0.01685384  0.01964766  0.00029769  0.26856976  0.30000000  0.06123724  62336.35
  41  -573.06350286  -573.06875992    -0.00525706  0.01558292  0.01847443  0.00027992  0.25302425  0.30000000  0.06123724  63563.56
  42  -573.06875992  -573.07367032    -0.00491040  0.01474956  0.01757637  0.00026631  0.26701993  0.30000000  0.06123724  64704.98
  43  -573.07367032  -573.07818965    -0.00451933  0.01318008  0.01618674  0.00024525  0.23938179  0.30000000  0.06123724  65945.78
  44  -573.07818965  -573.08234248    -0.00415282  0.01237357  0.01544189  0.00023397  0.26181128  0.30000000  0.06123724  67097.58
  45  -573.08234248  -573.08604655    -0.00370407  0.01070091  0.01366930  0.00020711  0.23357980  0.30000000  0.06123724  68224.70
  46  -573.08604655  -573.08930719    -0.00326065  0.00963897  0.01263532  0.00019144  0.25112510  0.30000000  0.06123724  69365.52
  47  -573.08930719  -573.09205577    -0.00274857  0.00802286  0.01072627  0.00016252  0.23019835  0.30000000  0.06123724  70500.64
  48  -573.09205577  -573.09429858    -0.00224282  0.00675870  0.00933273  0.00014141  0.24529457  0.30000000  0.06123724  71630.88
  49  -573.09429858  -573.09603629    -0.00173771  0.00513450  0.00728087  0.00011032  0.21145951  0.30000000  0.06123724  72762.45
  50  -573.09603629  -573.09733282    -0.00129653  0.00396017  0.00627593  0.00009509  0.23646959  0.30000000  0.06123724  73801.03
  51  -573.09733282  -573.09830668    -0.00097386  0.00236183  0.00460690  0.00006980  0.21046839  0.30000000  0.06123724  74949.83
  52  -573.09830668  -573.09908924    -0.00078256  0.00210494  0.00481962  0.00007302  0.23195694  0.30000000  0.06123724  76095.79
  53  -573.09908924  -573.09976276    -0.00067353  0.00196485  0.00450689  0.00006829  0.26324546  0.30000000  0.06123724  77233.37
  54  -573.09976276  -573.10042143    -0.00065866  0.00207693  0.00528295  0.00008004  0.27222687  0.30000000  0.06123724  78369.48
  55  -573.10042143  -573.10109981    -0.00067838  0.00229802  0.00591856  0.00008968  0.28020629  0.30000000  0.06123724  79479.23
  56  -573.10109981  -573.10181627    -0.00071646  0.00280690  0.00651621  0.00009873  0.27818704  0.30000000  0.06123724  80620.84
  57  -573.10181627  -573.10255131    -0.00073505  0.00303921  0.00635150  0.00009623  0.27740688  0.30000000  0.06123724  81754.83
  58  -573.10255131  -573.10330382    -0.00075251  0.00299689  0.00612177  0.00009275  0.27312487  0.30000000  0.06123724  82897.00
  59  -573.10330382  -573.10400126    -0.00069744  0.00230930  0.00489048  0.00007410  0.27263153  0.30000000  0.06123724  84048.30
  60  -573.10400126  -573.10471978    -0.00071852  0.00286805  0.00597414  0.00009052  0.26448886  0.30000000  0.06123724  85182.91
  61  -573.10471978  -573.10535428    -0.00063450  0.00190607  0.00316351  0.00004793  0.26964848  0.30000000  0.06123724  86305.78
  62  -573.10535428  -573.10595204    -0.00059776  0.00196405  0.00393953  0.00005969  0.26155137  0.30000000  0.06123724  87441.84
  63  -573.10595204  -573.10649465    -0.00054260  0.00184818  0.00377428  0.00005719  0.26772656  0.30000000  0.06123724  88581.82
  64  -573.10649465  -573.10698658    -0.00049194  0.00190088  0.00382549  0.00005796  0.26400377  0.30000000  0.06123724  89725.35
  65  -573.10698658  -573.10741581    -0.00042923  0.00168466  0.00347535  0.00005266  0.26984236  0.30000000  0.06123724  90878.36
  66  -573.10741581  -573.10779424    -0.00037843  0.00193665  0.00366629  0.00005555  0.27015378  0.30000000  0.06123724  92036.66
  67  -573.10779424  -573.10810663    -0.00031239  0.00169170  0.00310812  0.00004709  0.27752192  0.30000000  0.06123724  93173.69
  68  -573.10810663  -573.10836562    -0.00025899  0.00186923  0.00323220  0.00004897  0.27915315  0.30000000  0.06123724  94336.55
  69  -573.10836562  -573.10855786    -0.00019224  0.00159736  0.00260444  0.00003946  0.28293575  0.30000000  0.06123724  95700.02
  70  -573.10855786  -573.10869696    -0.00013910  0.00169928  0.00268496  0.00004068  0.28173020  0.30000000  0.06123724  97063.86
  71  -573.10869696  -573.10877006    -0.00007310  0.00125137  0.00177910  0.00002696  0.28541482  0.30000000  0.06123724  98429.05
  72  -573.10877006  -573.10879168    -0.00002162  0.00127857  0.00188149  0.00002851  0.17725459  0.18529857  0.03782391  99780.66
  73  -573.10879168  -573.10879294    -0.00000127  0.00021090  0.00052014  0.00000788  0.06457218  0.06983193  0.01425438 101073.83
  74  -573.10879294  -573.10879339    -0.00000044  0.00027134  0.00050021  0.00000758  0.01449762  0.01556954  0.00317812 102101.46

 END OF GEOMETRY OPTIMIZATION.

 Geometry written to block  1 of record 700

 Recomputing wavefunction for reoriented structure

 Current geometry (xyz format, in Angstrom)

   24
 HF-SCF000/6-311G(D,P)  ENERGY=-573.10879339
 C         -0.9224286647        0.1209808668       -3.7886127279
 C         -1.5189909651        0.7233386600       -2.6955145839
 C         -0.9064743496        0.6686493174       -1.4539826827
 C          0.3147763630        0.0245399769       -1.3032786328
 C          0.9191846624       -0.5579165951       -2.4129538734
 C          0.2980636710       -0.5221757064       -3.6460178950
 H         -1.4024792984        0.1563760624       -4.7504143249
 H         -2.4576059286        1.2358428077       -2.8061099241
 H         -1.3737192977        1.1450360179       -0.6124671449
 H          1.8746891034       -1.0329449798       -2.2947551681
 H          0.7653605346       -0.9866649301       -4.4955912317
 C         -1.5181388924       -0.7241821968        2.6961270208
 C         -0.9221394954       -0.1202387590        3.7886877084
 C          0.2978197712        0.5237446695        3.6455440056
 C          0.9188971775        0.5589625568        2.4124097544
 C          0.3149272334       -0.0248594343        1.3032571091
 C         -0.9057332513       -0.6699928455        1.4545455552
 H         -2.4566424331       -1.2368192162        2.8070560907
 H         -1.4022488451       -0.1550606923        4.7504806678
 H          0.7646846404        0.9894804668        4.4946718311
 H          1.8739799647        1.0347484831        2.2938077267
 H         -1.3729538526       -1.1468321899        0.6132714086
 C          1.0619199523       -0.0003259323       -0.0000637573
 O          2.2536747400       -0.0005927828       -0.0001071306

 **********************************************************************************************************************************


 **********************************************************************************************************************************
 DATASETS  * FILE   NREC   LENGTH (MB)   RECORD NAMES
              1      18       32.42       500      610      700      900      950      970     1000      129      960     1100   
                                          VAR    BASINP    GEOM    SYMINP    ZMAT    AOBASIS   BASIS     P2S    ABASIS      S 
                                         1400     1410     1200     1210     1080     1600     1650     1700   
                                           T        V       H0       H01     AOSYM     SMH    MOLCAS    OPER   

              2       4        2.26       700     1000      520     2100   
                                         GEOM     BASIS   MCVARS     RHF  

 PROGRAMS   *        TOTAL      OPTG    HF-SCF       INT
 CPU TIMES  *    105423.72 103526.13   1874.02     23.43
 REAL TIME  *     30432.15 SEC
 DISK USED  *        41.47 MB (local),        7.58 GB (total)
 SF USED    *         0.42 MB
 GA USED    *         0.00 MB       (max)       0.00 MB       (current)
 **********************************************************************************************************************************


 PROGRAM * HESSIAN

 PROGRAM * MCKINLEY (Hessian of the energy)     Author: A. Bernhardsson, R. Lindh

 Orbitals from record         2100.2

 Number of closed-shell orbitals: 48 ( 48 )
 Number of occupied orbitals:     48 ( 48 )

 Number of electrons= 96     Singlet     Space symmetry=1      Wavefunction type: CLOSED          


 McKinley needed  25430.82 seconds of CPU time

 Entering CPHF calculation

 CPHF needed 761 iterations for 72 perturbations.  Total CPU time:64531.05 sec


 HF-SCF hessian saved to record  5300.2

 PROGRAM * FREQUENCIES (Calculation of harmonic vibrational spectra for HF-SCF)


 Permanent Dipole Moment [debye]
 1-3    0.000000    0.000000    0.000000

 Dipole Moment Norm    0.0000000 [debye]

 Dipole Moment Derivatives [debye/ang]
              1             2             3             4             5             6             7             8
    1    0.00000000    0.00000000    0.00000000    0.00000000    0.00000000    0.00000000    0.00000000    0.00000000
    2    0.00000000    0.00000000    0.00000000    0.00000000    0.00000000    0.00000000    0.00000000    0.00000000
    3    0.00000000    0.00000000    0.00000000    0.00000000    0.00000000    0.00000000    0.00000000    0.00000000
              9            10            11            12            13            14            15            16
    1    0.00000000    0.00000000    0.00000000    0.00000000    0.00000000    0.00000000    0.00000000    0.00000000
    2    0.00000000    0.00000000    0.00000000    0.00000000    0.00000000    0.00000000    0.00000000    0.00000000
    3    0.00000000    0.00000000    0.00000000    0.00000000    0.00000000    0.00000000    0.00000000    0.00000000
             17            18            19            20            21            22            23            24
    1    0.00000000    0.00000000    0.00000000    0.00000000    0.00000000    0.00000000    0.00000000    0.00000000
    2    0.00000000    0.00000000    0.00000000    0.00000000    0.00000000    0.00000000    0.00000000    0.00000000
    3    0.00000000    0.00000000    0.00000000    0.00000000    0.00000000    0.00000000    0.00000000    0.00000000
             25            26            27            28            29            30            31            32
    1    0.00000000    0.00000000    0.00000000    0.00000000    0.00000000    0.00000000    0.00000000    0.00000000
    2    0.00000000    0.00000000    0.00000000    0.00000000    0.00000000    0.00000000    0.00000000    0.00000000
    3    0.00000000    0.00000000    0.00000000    0.00000000    0.00000000    0.00000000    0.00000000    0.00000000
             33            34            35            36            37            38            39            40
    1    0.00000000    0.00000000    0.00000000    0.00000000    0.00000000    0.00000000    0.00000000    0.00000000
    2    0.00000000    0.00000000    0.00000000    0.00000000    0.00000000    0.00000000    0.00000000    0.00000000
    3    0.00000000    0.00000000    0.00000000    0.00000000    0.00000000    0.00000000    0.00000000    0.00000000
             41            42            43            44            45            46            47            48
    1    0.00000000    0.00000000    0.00000000    0.00000000    0.00000000    0.00000000    0.00000000    0.00000000
    2    0.00000000    0.00000000    0.00000000    0.00000000    0.00000000    0.00000000    0.00000000    0.00000000
    3    0.00000000    0.00000000    0.00000000    0.00000000    0.00000000    0.00000000    0.00000000    0.00000000
             49            50            51            52            53            54            55            56
    1    0.00000000    0.00000000    0.00000000    0.00000000    0.00000000    0.00000000    0.00000000    0.00000000
    2    0.00000000    0.00000000    0.00000000    0.00000000    0.00000000    0.00000000    0.00000000    0.00000000
    3    0.00000000    0.00000000    0.00000000    0.00000000    0.00000000    0.00000000    0.00000000    0.00000000
             57            58            59            60            61            62            63            64
    1    0.00000000    0.00000000    0.00000000    0.00000000    0.00000000    0.00000000    0.00000000    0.00000000
    2    0.00000000    0.00000000    0.00000000    0.00000000    0.00000000    0.00000000    0.00000000    0.00000000
    3    0.00000000    0.00000000    0.00000000    0.00000000    0.00000000    0.00000000    0.00000000    0.00000000
             65            66            67            68            69            70            71            72
    1    0.00000000    0.00000000    0.00000000    0.00000000    0.00000000    0.00000000    0.00000000    0.00000000
    2    0.00000000    0.00000000    0.00000000    0.00000000    0.00000000    0.00000000    0.00000000    0.00000000
    3    0.00000000    0.00000000    0.00000000    0.00000000    0.00000000    0.00000000    0.00000000    0.00000000

 Projecting out rotations and translations

 Force Constants (Second Derivatives of the Energy) in [a.u.]
                             CX1         CY1         CZ1         CX2         CY2     
           CX1           0.6194214
           CY1          -0.2287516   0.3203952
           CZ1           0.0961087   0.0981850   0.7913976
           CX2          -0.1814419   0.0847523   0.1052423   0.6751360
           CY2           0.0634188  -0.1402524  -0.1109080  -0.2788599   0.3443902
           CZ2           0.0122761  -0.0581783  -0.2854463   0.0628200   0.0944836
           CX3           0.0851336  -0.0499971  -0.0283178  -0.1811300   0.0505461
           CY3          -0.0314768   0.0253456  -0.0023712   0.0281353  -0.1015860
           CZ3           0.0472163  -0.0435386  -0.0654159  -0.1329378   0.0185092
           CX4          -0.0696146   0.0433104   0.0361697  -0.0194553  -0.0098911
           CY4           0.0408802  -0.0365793  -0.0216034   0.0097926   0.0208099
           CZ4           0.0343911  -0.0229274  -0.0224606  -0.0283635   0.0237658
           CX5          -0.0189928   0.0068543  -0.0328790  -0.0028930  -0.0022638
           CY5          -0.0097170   0.0197838   0.0261008  -0.0018085  -0.0121326
           CZ5          -0.1059393   0.0680602   0.0461071  -0.0019452  -0.0240877
           CX6          -0.2934365   0.1028274  -0.0716662  -0.0161751   0.0372420
           CY6           0.1255679  -0.1423314   0.0189158   0.0201779  -0.0112228
           CZ6           0.0214102  -0.0327358  -0.1635006   0.0260424   0.0011288
           HX7          -0.1264981   0.0145562  -0.1212907   0.0126388  -0.0003070
           HY7           0.0147699  -0.0554508   0.0043587  -0.0078891   0.0067036
           HZ7          -0.1212607   0.0043089  -0.3098716  -0.0160642   0.0034176
           HX8          -0.0077240   0.0058652  -0.0049978  -0.2935381   0.1354624
           HY8           0.0129542  -0.0017856   0.0043658   0.1357154  -0.1208182
           HZ8           0.0262024  -0.0137932   0.0097287  -0.0293820   0.0097233
           HX9           0.0009727   0.0034078  -0.0042695   0.0128941  -0.0074303
           HY9           0.0029610   0.0069034  -0.0002305  -0.0001591   0.0062191
           HZ9          -0.0045562  -0.0004044  -0.0042168   0.0169491  -0.0153531
           HX10          0.0021361   0.0025602  -0.0033108   0.0004550  -0.0007220
           HY10          0.0028851   0.0071582  -0.0015464  -0.0007223  -0.0006585
           HZ10         -0.0035119  -0.0016754  -0.0053280   0.0001381  -0.0001591
           HX11         -0.0062155   0.0125756   0.0273998  -0.0033968   0.0059170
           HY11          0.0051688  -0.0017077  -0.0142480   0.0059453   0.0049758
           HZ11         -0.0040642   0.0031032   0.0081874  -0.0019379  -0.0004665
           CX12          0.0001035  -0.0001040  -0.0000528   0.0002045  -0.0000572
           CY12          0.0002071  -0.0001428  -0.0001073   0.0000590   0.0000903
           CZ12          0.0003754  -0.0001821  -0.0001046  -0.0001171   0.0003745
           CX13         -0.0002376   0.0001137   0.0000750   0.0001031  -0.0002074
           CY13         -0.0001147   0.0000275   0.0000022   0.0001055  -0.0001435
           CZ13         -0.0000748   0.0000015  -0.0000745   0.0000529  -0.0001075
           CX14          0.0002266  -0.0000773   0.0000225  -0.0001293   0.0002283
           CY14          0.0000796  -0.0000351   0.0000057   0.0000020   0.0001226
           CZ14         -0.0001468   0.0000400   0.0000018   0.0001245  -0.0001710
           CX15          0.0001364  -0.0000671   0.0000799   0.0001273   0.0002390
           CY15         -0.0000794   0.0000647   0.0001110  -0.0001685   0.0001093
           CZ15          0.0002892  -0.0000852   0.0000054  -0.0003124   0.0003821
           CX16         -0.0002110   0.0001548   0.0000096   0.0000184  -0.0002820
           CY16          0.0004809  -0.0000970  -0.0001474  -0.0007879  -0.0003247
           CZ16         -0.0006031   0.0004546   0.0001273  -0.0002004  -0.0009579
           CX17         -0.0004537   0.0003928   0.0001336  -0.0002567  -0.0005504
           CY17         -0.0003219   0.0003357   0.0000253  -0.0004723  -0.0002695
           CZ17         -0.0001349  -0.0001172  -0.0002297   0.0001608  -0.0001895
           HX18          0.0000141   0.0000029   0.0000267  -0.0000132   0.0000298
           HY18         -0.0000062   0.0000129   0.0000235  -0.0000205  -0.0000013
           HZ18         -0.0000088  -0.0000102  -0.0000393  -0.0000043  -0.0000160
           HX19          0.0000210  -0.0000151  -0.0000057   0.0000048   0.0000084
           HY19         -0.0000067   0.0000039   0.0000118   0.0000111   0.0000065
           HZ19          0.0000142  -0.0000177  -0.0000212   0.0000432  -0.0000084
           HX20         -0.0000085   0.0000035   0.0000084   0.0000081  -0.0000040
           HY20          0.0000238  -0.0000128  -0.0000080   0.0000184   0.0000139
           HZ20         -0.0000180   0.0000070  -0.0000230   0.0000060  -0.0000282
           HX21          0.0000018  -0.0000050  -0.0000015   0.0000052   0.0000124
           HY21          0.0000375  -0.0000159   0.0000161   0.0000350  -0.0000193
           HZ21          0.0000422  -0.0000205   0.0000341   0.0000350   0.0000311
           HX22          0.0002766  -0.0003099  -0.0002629   0.0001371   0.0001088
           HY22          0.0000987  -0.0000916   0.0000142   0.0002798   0.0000769
           HZ22          0.0003772  -0.0003809  -0.0002598   0.0001627   0.0002949
           CX23         -0.0026433   0.0017232   0.0022398  -0.0029977   0.0065436
           CY23          0.0008730  -0.0017781  -0.0013413   0.0079217   0.0044086
           CZ23          0.0041253  -0.0015429   0.0014516   0.0006815  -0.0011214
           OX24         -0.0009661   0.0002267  -0.0004613  -0.0003053   0.0008185
           OY24          0.0000678   0.0002495   0.0003757  -0.0020632  -0.0004980
           OZ24         -0.0025096   0.0014493  -0.0000490  -0.0011936   0.0014634
                             CZ2         CX3         CY3         CZ3         CX4     
           CZ2           0.7028952
           CX3          -0.0391025   0.6101959
           CY3          -0.0317847  -0.2466515   0.3437121
           CZ3          -0.3149822   0.0173786   0.1319034   0.7747267
           CX4          -0.1027890  -0.2836049   0.1241192   0.0195241   0.6530632
           CY4           0.0622520   0.1019875  -0.1412569  -0.0262231  -0.2185579
           CZ4           0.0400909  -0.0616017   0.0186216  -0.1616097   0.0400546
           CX5           0.0004946  -0.0175640   0.0217318   0.0268878  -0.1814016
           CY5          -0.0256637   0.0384611  -0.0118845   0.0014593   0.0548363
           CZ5          -0.1166782   0.0987041  -0.0391724   0.0743667   0.0139485
           CX6           0.1008292  -0.0730730   0.0240123  -0.0528243   0.0810757
           CY6          -0.0388959   0.0231328  -0.0154929   0.0197227  -0.0302066
           CZ6           0.0774874  -0.0529714   0.0206954  -0.0434789   0.0426966
           HX7           0.0150325   0.0013151   0.0048344   0.0024894  -0.0008400
           HY7          -0.0138248   0.0047373   0.0050663  -0.0041597   0.0006463
           HZ7          -0.0175631   0.0027814  -0.0043568  -0.0025163   0.0008347
           HX8          -0.0297407  -0.0078796   0.0075418   0.0020749   0.0022879
           HY8           0.0093946   0.0004092   0.0037862  -0.0010977   0.0023106
           HZ8          -0.0739315  -0.0291743   0.0166168   0.0033872  -0.0031543
           HX9          -0.0141133  -0.1247011   0.0688196   0.1003720  -0.0064064
           HY9           0.0021065   0.0695986  -0.1139456  -0.1082570   0.0045623
           HZ9          -0.0167908   0.1005650  -0.1097761  -0.2559680  -0.0019863
           HX10         -0.0000726   0.0019124   0.0032127   0.0021899  -0.0084811
           HY10         -0.0001608   0.0035111   0.0046856  -0.0041560   0.0138836
           HZ10         -0.0013183   0.0017579  -0.0038568  -0.0046871   0.0247331
           HX11         -0.0024492  -0.0010950  -0.0001082  -0.0009394   0.0011377
           HY11         -0.0001254  -0.0002712  -0.0005026   0.0007117   0.0032105
           HZ11          0.0019068  -0.0009006   0.0007008  -0.0000514  -0.0050026
           CX12          0.0001162  -0.0002579   0.0004745  -0.0001601   0.0000185
           CY12          0.0003745   0.0005533  -0.0002705  -0.0001910   0.0002814
           CZ12          0.0006110   0.0007466  -0.0005568  -0.0002922   0.0001637
           CX13         -0.0003759  -0.0004550   0.0003208   0.0001346  -0.0002105
           CY13         -0.0001837  -0.0003925   0.0003353  -0.0001185  -0.0001555
           CZ13         -0.0001049  -0.0001337   0.0000246  -0.0002299  -0.0000090
           CX14          0.0003511   0.0003355  -0.0002552   0.0000878   0.0008013
           CY14          0.0001302   0.0002348  -0.0000157   0.0001037   0.0013093
           CZ14         -0.0002110  -0.0003538   0.0003264  -0.0001033   0.0004821
           CX15          0.0001561   0.0001604   0.0000128   0.0001121  -0.0031562
           CY15         -0.0000382   0.0002200  -0.0001465   0.0003376  -0.0006791
           CZ15          0.0004501   0.0009142  -0.0007462   0.0001568   0.0038588
           CX16         -0.0001647  -0.0001347  -0.0004099   0.0005587   0.0146720
           CY16          0.0007164  -0.0003646  -0.0009412  -0.0016460  -0.0001185
           CZ16         -0.0008313  -0.0007271  -0.0002680  -0.0011082   0.0136036
           CX17         -0.0007465  -0.0004832  -0.0002472   0.0002748  -0.0001346
           CY17         -0.0005573   0.0002495  -0.0015989   0.0018097   0.0004094
           CZ17         -0.0002928  -0.0002775   0.0018121  -0.0021199  -0.0005622
           HX18          0.0000269   0.0000008  -0.0000032   0.0000138  -0.0000435
           HY18         -0.0000302  -0.0000277   0.0000205   0.0000954  -0.0000477
           HZ18         -0.0000051   0.0000113  -0.0000440  -0.0000400   0.0000616
           HX19          0.0000370   0.0000207   0.0000087  -0.0000160  -0.0000002
           HY19         -0.0000156  -0.0000462   0.0000337   0.0000082  -0.0000324
           HZ19          0.0000177   0.0000316   0.0000373  -0.0000423   0.0000335
           HX20         -0.0000118  -0.0000110   0.0000383   0.0000136  -0.0001641
           HY20          0.0000211   0.0000312  -0.0000275  -0.0000191  -0.0000049
           HZ20         -0.0000305   0.0000231  -0.0000120  -0.0000271   0.0003963
           HX21          0.0000082   0.0000294   0.0000153  -0.0000360   0.0002566
           HY21          0.0000401  -0.0001203   0.0000704   0.0000945   0.0000062
           HZ21          0.0000478  -0.0000866   0.0000705   0.0001378   0.0002247
           HX22          0.0004166   0.0004700   0.0001468  -0.0002416   0.0000984
           HY22          0.0001537  -0.0003676   0.0001281   0.0004645  -0.0004700
           HZ22          0.0004734   0.0002430   0.0018353  -0.0016896   0.0008373
           CX23         -0.0006820  -0.0142971  -0.0014041  -0.0253282  -0.1234994
           CY23         -0.0010641   0.0043529   0.0031112   0.0169788   0.0099243
           CZ23          0.0072550  -0.0109662   0.0041875   0.0080269  -0.0298200
           OX24         -0.0023161   0.0051126  -0.0028681  -0.0068447  -0.0563988
           OY24          0.0008499   0.0002132   0.0013737  -0.0027919   0.0013538
           OZ24         -0.0030495   0.0014563  -0.0038866  -0.0064400  -0.0542992
                             CY4         CZ4         CX5         CY5         CZ5     
           CY4           0.3109839
           CZ4           0.0955502   0.6930728
           CX5           0.0728552   0.0978374   0.6978019
           CY5          -0.1322764  -0.0998518  -0.2609097   0.3327893
           CZ5          -0.0539636  -0.2622743   0.0800230   0.0898252   0.7108225
           CX6          -0.0432276  -0.0303934  -0.1877753   0.0467261  -0.0433399
           CY6           0.0249301   0.0017442   0.0272267  -0.1006440  -0.0377801
           CZ6          -0.0410923  -0.0628892  -0.1374051   0.0128431  -0.3246652
           HX7           0.0001672   0.0008977  -0.0035805   0.0065861  -0.0006056
           HY7          -0.0012087  -0.0003031   0.0063236   0.0047110  -0.0011954
           HZ7          -0.0001654   0.0003499  -0.0008630  -0.0010049   0.0023173
           HX8           0.0026737  -0.0040681   0.0003224  -0.0007436   0.0000700
           HY8           0.0067223  -0.0009678  -0.0008700  -0.0006132  -0.0005506
           HZ8          -0.0012002  -0.0056815   0.0002363  -0.0002559  -0.0014907
           HX9           0.0121856   0.0259551  -0.0035683   0.0058126  -0.0028640
           HY9          -0.0019187  -0.0144615   0.0059431   0.0046886  -0.0004317
           HZ9           0.0022081   0.0084542  -0.0021683  -0.0001433   0.0017565
           HX10          0.0068549  -0.0022408  -0.3085894   0.1306225  -0.0300389
           HY10         -0.0007071   0.0043211   0.1295575  -0.1150555   0.0092898
           HZ10         -0.0122015   0.0094686  -0.0311692   0.0118063  -0.0743375
           HX11          0.0028426  -0.0044051   0.0125737  -0.0075885  -0.0140388
           HY11          0.0068059  -0.0009655   0.0000339   0.0055154   0.0025724
           HZ11         -0.0007345  -0.0039890   0.0171869  -0.0149037  -0.0180191
           CX12          0.0007884   0.0002022   0.0001269   0.0001670   0.0003120
           CY12         -0.0003234  -0.0009579  -0.0002396   0.0001082   0.0003825
           CZ12          0.0007180  -0.0008298  -0.0001563  -0.0000385   0.0004497
           CX13         -0.0004809   0.0006025   0.0001373   0.0000804  -0.0002890
           CY13         -0.0000984   0.0004556   0.0000673   0.0000657  -0.0000854
           CZ13         -0.0001478   0.0001264  -0.0000801   0.0001105   0.0000055
           CX14          0.0012942  -0.0008844  -0.0000154  -0.0000328   0.0001126
           CY14         -0.0005528  -0.0009635  -0.0003328   0.0001027  -0.0002644
           CZ14          0.0000294  -0.0000731  -0.0000553   0.0001973  -0.0002604
           CX15         -0.0016298   0.0026485   0.0006827  -0.0001740   0.0007445
           CY15          0.0009180   0.0015182   0.0001740  -0.0005087   0.0002583
           CZ15          0.0009664  -0.0029742  -0.0007452   0.0002587  -0.0006695
           CX16          0.0001255  -0.0136047  -0.0031584   0.0006806  -0.0038601
           CY16          0.0195561  -0.0003000   0.0016289   0.0009220   0.0009624
           CZ16         -0.0003075  -0.0168983  -0.0026503   0.0015171  -0.0029734
           CX17          0.0003644   0.0007249   0.0001603  -0.0002197  -0.0009124
           CY17         -0.0009414  -0.0002689  -0.0000130  -0.0001457  -0.0007457
           CZ17         -0.0016514  -0.0011088  -0.0001128   0.0003381   0.0001569
           HX18          0.0000429   0.0000813   0.0000672  -0.0000147   0.0000077
           HY18         -0.0000045   0.0000777   0.0000354  -0.0000255  -0.0000141
           HZ18         -0.0001122  -0.0000877  -0.0000645   0.0000156  -0.0000147
           HX19         -0.0000447  -0.0000127   0.0000011   0.0000053   0.0000409
           HY19          0.0000614   0.0001153   0.0000393   0.0000111  -0.0000055
           HZ19          0.0000061  -0.0000964  -0.0000513   0.0000332   0.0000409
           HX20         -0.0000066   0.0002085   0.0000335  -0.0000288   0.0000365
           HY20         -0.0001144  -0.0001114  -0.0000152   0.0000393   0.0000144
           HZ20          0.0000852  -0.0003091  -0.0001344   0.0000491  -0.0000912
           HX21         -0.0000570  -0.0002113  -0.0000763   0.0000163  -0.0000262
           HY21          0.0002377   0.0001573   0.0001390   0.0000574   0.0000779
           HZ21         -0.0002679   0.0001891   0.0000448   0.0000033   0.0000156
           HX22         -0.0000940  -0.0001069  -0.0001276   0.0002959   0.0007680
           HY22          0.0005080   0.0006614   0.0001956   0.0001609   0.0002146
           HZ22          0.0005357  -0.0011897  -0.0001419   0.0000566   0.0006844
           CX23          0.0082214  -0.0283252   0.0216784  -0.0067263   0.0022192
           CY23         -0.1006793  -0.0081518  -0.0096654   0.0059226  -0.0123535
           CZ23         -0.0048847  -0.2169956  -0.0138888  -0.0002952  -0.0330729
           OX24          0.0030222  -0.0293858  -0.0058427   0.0036731   0.0068726
           OY24          0.0251282   0.0032423   0.0015039  -0.0015918  -0.0010076
           OZ24          0.0022045   0.0077153  -0.0001454  -0.0024573  -0.0021761
                             CX6         CY6         CZ6         HX7         HY7     
           CX6           0.6189240
           CY6          -0.2465947   0.3331787
           CZ6           0.0204789   0.1385953   0.7742633
           HX7          -0.0057834  -0.0008335  -0.0298435   0.1239034
           HY7           0.0065859   0.0056911   0.0157298  -0.0194096   0.0418401
           HZ7           0.0012066  -0.0015164   0.0020421   0.1328119  -0.0031479
           HX8           0.0025478   0.0040123   0.0022835  -0.0004746  -0.0023133
           HY8           0.0039481   0.0052178  -0.0041526  -0.0025328  -0.0032550
           HZ8           0.0016296  -0.0039312  -0.0041330  -0.0001087   0.0014503
           HX9          -0.0006026  -0.0002833  -0.0006692   0.0003184  -0.0005006
           HY9           0.0001476  -0.0008282   0.0008902  -0.0001440  -0.0000988
           HZ9          -0.0010124   0.0007477  -0.0001414   0.0008127  -0.0006260
           HX10         -0.0060086   0.0068507   0.0019787  -0.0005012   0.0001742
           HY10          0.0000033   0.0057699  -0.0013104  -0.0001958  -0.0001917
           HZ10         -0.0288309   0.0148269   0.0043444  -0.0013133   0.0008783
           HX11         -0.1231061   0.0669733   0.1002399  -0.0001696  -0.0025354
           HY11          0.0666247  -0.1087378  -0.1067895  -0.0022543  -0.0031569
           HZ11          0.1001787  -0.1067247  -0.2575861   0.0011485   0.0006283
           CX12         -0.0001300  -0.0000027  -0.0001243   0.0000049  -0.0000109
           CY12         -0.0002286   0.0001225  -0.0001715  -0.0000084   0.0000065
           CZ12         -0.0003516   0.0001311  -0.0002109  -0.0000371  -0.0000156
           CX13          0.0002267  -0.0000794   0.0001469   0.0000210   0.0000067
           CY13          0.0000779  -0.0000353   0.0000399   0.0000151   0.0000039
           CZ13         -0.0000226   0.0000051   0.0000018   0.0000057   0.0000117
           CX14         -0.0001474  -0.0000590  -0.0001010  -0.0000128  -0.0000099
           CY14          0.0000591  -0.0000705  -0.0001111  -0.0000103  -0.0000132
           CZ14          0.0001013  -0.0001107   0.0000365   0.0000165   0.0000095
           CX15         -0.0000159   0.0003324   0.0000561   0.0000011  -0.0000393
           CY15          0.0000324   0.0001019   0.0001969  -0.0000053   0.0000110
           CZ15         -0.0001121  -0.0002641  -0.0002607  -0.0000410  -0.0000056
           CX16          0.0008044  -0.0013078  -0.0004837  -0.0000003   0.0000324
           CY16         -0.0012922  -0.0005544   0.0000290   0.0000445   0.0000612
           CZ16          0.0008868  -0.0009624  -0.0000743   0.0000126   0.0001152
           CX17          0.0003343  -0.0002348   0.0003532   0.0000207   0.0000464
           CY17          0.0002551  -0.0000154   0.0003260  -0.0000087   0.0000337
           CZ17         -0.0000883   0.0001050  -0.0001034   0.0000159   0.0000082
           HX18          0.0000195   0.0000001   0.0000110   0.0000018  -0.0000034
           HY18          0.0000267  -0.0000113   0.0000174   0.0000008   0.0000005
           HZ18         -0.0000254   0.0000045  -0.0000168  -0.0000006   0.0000040
           HX19         -0.0000128   0.0000103  -0.0000165   0.0000018  -0.0000002
           HY19          0.0000100  -0.0000132   0.0000094   0.0000002  -0.0000010
           HZ19         -0.0000342   0.0000129  -0.0000272  -0.0000030  -0.0000017
           HX20          0.0000002   0.0000176   0.0000157  -0.0000002  -0.0000005
           HY20         -0.0000112   0.0000059  -0.0000259  -0.0000025  -0.0000035
           HZ20         -0.0000058  -0.0000276  -0.0000156  -0.0000045   0.0000020
           HX21          0.0000213  -0.0000123  -0.0000215  -0.0000013  -0.0000026
           HY21         -0.0000265  -0.0000401  -0.0000055   0.0000089   0.0000008
           HZ21          0.0000400  -0.0000187  -0.0000372   0.0000059  -0.0000055
           HX22         -0.0004113   0.0001702  -0.0002471  -0.0000056  -0.0000016
           HY22         -0.0000633  -0.0001009  -0.0001814   0.0000025  -0.0000222
           HZ22         -0.0003809   0.0001649  -0.0004030  -0.0000055  -0.0000332
           CX23          0.0023882   0.0043530   0.0071427  -0.0003906  -0.0004050
           CY23          0.0030743   0.0056027  -0.0046299  -0.0004838  -0.0008658
           CZ23          0.0035716  -0.0064043  -0.0036726   0.0002746   0.0001391
           OX24          0.0003357   0.0007890  -0.0009725   0.0000311  -0.0002010
           OY24         -0.0002088  -0.0005225   0.0007047  -0.0000199   0.0001378
           OZ24          0.0001655   0.0016598   0.0030409  -0.0002704  -0.0000167
                             HZ7         HX8         HY8         HZ8         HX9     
           HZ7           0.3250627
           HX8           0.0010265   0.3061518
           HY8           0.0008159  -0.1501219   0.1149960
           HZ8           0.0007789   0.0327432  -0.0094921   0.0697998
           HX9          -0.0006920  -0.0004725  -0.0022881   0.0011935   0.1222953
           HY9           0.0002146  -0.0025120  -0.0033077   0.0007144  -0.0778727
           HZ9          -0.0010621   0.0001890   0.0012665   0.0009226  -0.1080391
           HX10          0.0001309  -0.0002593  -0.0003640   0.0000559  -0.0004559
           HY10         -0.0000072  -0.0004171  -0.0007583   0.0002143   0.0006751
           HZ10         -0.0000945   0.0000901   0.0002022   0.0000373   0.0013542
           HX11          0.0000015  -0.0005541   0.0006632   0.0013151  -0.0002032
           HY11          0.0012582   0.0002523  -0.0002955  -0.0006475  -0.0004924
           HZ11          0.0005669  -0.0002135   0.0001752   0.0002138   0.0001962
           CX12         -0.0000432  -0.0000125   0.0000206   0.0000046   0.0001380
           CY12         -0.0000083  -0.0000307  -0.0000006  -0.0000157  -0.0001098
           CZ12          0.0000178  -0.0000268  -0.0000301  -0.0000048  -0.0004163
           CX13         -0.0000142   0.0000142   0.0000060   0.0000091   0.0002762
           CY13         -0.0000177  -0.0000034   0.0000134  -0.0000096   0.0003096
           CZ13         -0.0000212  -0.0000267   0.0000235  -0.0000392   0.0002627
           CX14          0.0000342   0.0000193  -0.0000265   0.0000256  -0.0004112
           CY14          0.0000129   0.0000001  -0.0000113   0.0000050  -0.0001701
           CZ14         -0.0000272  -0.0000109   0.0000174  -0.0000168   0.0002468
           CX15          0.0000512   0.0000668  -0.0000353   0.0000647  -0.0001277
           CY15          0.0000333   0.0000153  -0.0000258   0.0000160  -0.0002963
           CZ15          0.0000409  -0.0000078  -0.0000141  -0.0000150  -0.0007678
           CX16         -0.0000335  -0.0000435   0.0000476  -0.0000615   0.0000980
           CY16          0.0000062  -0.0000425  -0.0000044  -0.0001116   0.0000950
           CZ16         -0.0000962  -0.0000811   0.0000777  -0.0000873   0.0001060
           CX17         -0.0000316   0.0000014   0.0000277  -0.0000112   0.0004710
           CY17          0.0000372   0.0000027   0.0000209  -0.0000437  -0.0001467
           CZ17         -0.0000424  -0.0000138   0.0000955  -0.0000397   0.0002405
           HX18          0.0000123   0.0000114  -0.0000101   0.0000106  -0.0000393
           HY18          0.0000032   0.0000099  -0.0000113   0.0000199  -0.0000455
           HZ18         -0.0000063  -0.0000106   0.0000199  -0.0000215   0.0000408
           HX19          0.0000030   0.0000018  -0.0000008   0.0000006  -0.0000056
           HY19         -0.0000017   0.0000034   0.0000005   0.0000040   0.0000014
           HZ19         -0.0000117  -0.0000123   0.0000032  -0.0000063   0.0000218
           HX20         -0.0000010  -0.0000019  -0.0000044   0.0000020   0.0000035
           HY20         -0.0000030   0.0000005   0.0000018   0.0000024  -0.0000053
           HZ20         -0.0000124  -0.0000184   0.0000030  -0.0000130   0.0000242
           HX21         -0.0000009  -0.0000075  -0.0000039  -0.0000037  -0.0000193
           HY21          0.0000004   0.0000149  -0.0000050   0.0000170   0.0000326
           HZ21          0.0000085   0.0000170  -0.0000109   0.0000204   0.0000004
           HX22         -0.0000218  -0.0000393   0.0000453  -0.0000408   0.0001321
           HY22         -0.0000527  -0.0000078   0.0000034   0.0000219  -0.0000288
           HZ22          0.0000091   0.0000086   0.0000008   0.0000205   0.0000972
           CX23          0.0003065   0.0001419  -0.0000394  -0.0007170  -0.0001532
           CY23          0.0002100   0.0004708   0.0003240   0.0008378  -0.0019438
           CZ23          0.0002489   0.0010947  -0.0004594   0.0013111   0.0023795
           OX24         -0.0001746  -0.0005598   0.0001492  -0.0008396  -0.0004332
           OY24         -0.0000362  -0.0001329  -0.0001946  -0.0001425   0.0002744
           OZ24         -0.0001180  -0.0003687   0.0003141  -0.0007401  -0.0006599
                             HY9         HZ9         HX10        HY10        HZ10    
           HY9           0.1062931
           HZ9           0.1187465   0.2696893
           HX10          0.0002858  -0.0002853   0.3220442
           HY10         -0.0001781   0.0001088  -0.1445306   0.1059040
           HZ10         -0.0008177   0.0003291   0.0341822  -0.0103384   0.0707603
           HX11         -0.0004652   0.0001479  -0.0003546  -0.0022975   0.0013096
           HY11         -0.0008175   0.0001452  -0.0023730  -0.0036606   0.0008423
           HZ11          0.0001506  -0.0000574   0.0002120   0.0013587   0.0008573
           CX12         -0.0002804  -0.0001629   0.0000051  -0.0000352  -0.0000352
           CY12          0.0000783   0.0002962  -0.0000126  -0.0000195   0.0000311
           CZ12          0.0001542   0.0004744  -0.0000083   0.0000401   0.0000477
           CX13         -0.0000988  -0.0003770   0.0000019  -0.0000373  -0.0000423
           CY13         -0.0000912  -0.0003813   0.0000050  -0.0000159  -0.0000205
           CZ13          0.0000142  -0.0002598   0.0000014   0.0000160   0.0000342
           CX14          0.0000639   0.0003817   0.0000212   0.0000266  -0.0000398
           CY14         -0.0001010   0.0001656   0.0000124  -0.0000399  -0.0000188
           CZ14         -0.0001816  -0.0004039   0.0000215  -0.0000054  -0.0000372
           CX15         -0.0001956   0.0001421  -0.0000761  -0.0001389  -0.0000452
           CY15          0.0001605   0.0000584  -0.0000163   0.0000573   0.0000035
           CZ15          0.0002148   0.0006852   0.0000261   0.0000779   0.0000158
           CX16          0.0004701  -0.0008400   0.0002563  -0.0000059  -0.0002249
           CY16          0.0005083   0.0005364   0.0000566   0.0002381  -0.0002672
           CZ16          0.0006610  -0.0011921   0.0002106   0.0001564   0.0001894
           CX17          0.0003682  -0.0002449   0.0000291   0.0001197   0.0000867
           CY17          0.0001276   0.0018362  -0.0000153   0.0000704   0.0000706
           CZ17          0.0004642  -0.0016917   0.0000360   0.0000944   0.0001382
           HX18          0.0000077  -0.0000086  -0.0000074  -0.0000148  -0.0000170
           HY18          0.0000034   0.0000008   0.0000039  -0.0000049  -0.0000109
           HZ18          0.0000220   0.0000205   0.0000037   0.0000169   0.0000205
           HX19         -0.0000025   0.0000056  -0.0000013  -0.0000089  -0.0000059
           HY19         -0.0000222  -0.0000331   0.0000026   0.0000008  -0.0000055
           HZ19         -0.0000527   0.0000091   0.0000009   0.0000004   0.0000085
           HX20         -0.0000131  -0.0000087  -0.0000052  -0.0000030   0.0000033
           HY20         -0.0000259   0.0000319   0.0000016  -0.0000009   0.0000018
           HZ20         -0.0000080   0.0000036   0.0000074   0.0000149   0.0000174
           HX21         -0.0000452   0.0000103   0.0000144  -0.0000103  -0.0000053
           HY21         -0.0000286  -0.0000226   0.0000104  -0.0000063  -0.0000341
           HZ21         -0.0000616   0.0000091   0.0000053  -0.0000340  -0.0000358
           HX22          0.0000292  -0.0000973  -0.0000192  -0.0000324  -0.0000005
           HY22         -0.0008555  -0.0000199   0.0000451  -0.0000285  -0.0000617
           HZ22         -0.0000193  -0.0003978  -0.0000102  -0.0000226   0.0000091
           CX23         -0.0018410  -0.0002061  -0.0036805  -0.0002937   0.0033233
           CY23         -0.0032734   0.0005834  -0.0018152  -0.0030019   0.0002955
           CZ23          0.0001279  -0.0005902  -0.0006875   0.0013705   0.0001475
           OX24         -0.0008078   0.0007897   0.0015642  -0.0019183  -0.0017374
           OY24          0.0005101   0.0000279  -0.0008497   0.0004434   0.0005090
           OZ24          0.0000404   0.0004183  -0.0024080   0.0005009  -0.0005866
                             HX11        HY11        HZ11        CX12        CY12    
           HX11          0.1209166
           HY11         -0.0757066   0.1015839
           HZ11         -0.1077806   0.1171971   0.2687275
           CX12          0.0000080  -0.0000185  -0.0000060   0.6748398
           CY12          0.0000038   0.0000140  -0.0000282   0.2789656   0.3448483
           CZ12          0.0000117   0.0000213  -0.0000304  -0.0631606   0.0947510
           CX13         -0.0000084  -0.0000238   0.0000180  -0.1813114  -0.0634342
           CY13         -0.0000036  -0.0000128   0.0000070  -0.0848655  -0.1405244
           CZ13         -0.0000084  -0.0000080  -0.0000230  -0.1050403  -0.1111231
           CX14          0.0000002   0.0000112   0.0000059  -0.0161281  -0.0373289
           CY14         -0.0000176   0.0000059  -0.0000276  -0.0202144  -0.0113013
           CZ14         -0.0000156  -0.0000259  -0.0000155  -0.0260301   0.0011975
           CX15          0.0000334   0.0000151   0.0001343  -0.0028918   0.0022676
           CY15          0.0000288   0.0000393   0.0000492   0.0018140  -0.0121773
           CZ15         -0.0000366   0.0000144  -0.0000912   0.0019590  -0.0241757
           CX16         -0.0001641   0.0000052  -0.0003966  -0.0194578   0.0099470
           CY16          0.0000063  -0.0001150   0.0000852  -0.0098060   0.0208771
           CZ16         -0.0002084  -0.0001112  -0.0003091   0.0283674   0.0238011
           CX17         -0.0000109  -0.0000313  -0.0000231  -0.1810847  -0.0505648
           CY17         -0.0000384  -0.0000275  -0.0000120  -0.0280895  -0.1016314
           CZ17         -0.0000135  -0.0000189  -0.0000272   0.1329619   0.0184405
           HX18         -0.0000019  -0.0000005   0.0000185  -0.2934740  -0.1354980
           HY18          0.0000044   0.0000018   0.0000030  -0.1357183  -0.1208718
           HZ18         -0.0000020   0.0000024  -0.0000130   0.0294693   0.0097541
           HX19         -0.0000002   0.0000025   0.0000045   0.0126315   0.0002972
           HY19          0.0000005  -0.0000035   0.0000020   0.0079130   0.0066958
           HZ19          0.0000010  -0.0000030  -0.0000124   0.0160556   0.0034066
           HX20          0.0000047   0.0000025   0.0000053  -0.0033873  -0.0059219
           HY20         -0.0000024  -0.0000057  -0.0000052  -0.0059507   0.0049686
           HZ20         -0.0000053  -0.0000052  -0.0000267   0.0019440  -0.0004691
           HX21         -0.0000052  -0.0000015  -0.0000074   0.0004536   0.0007228
           HY21          0.0000030  -0.0000009   0.0000149   0.0007234  -0.0006569
           HZ21         -0.0000033   0.0000017   0.0000173  -0.0001386  -0.0001601
           HX22          0.0000036   0.0000054  -0.0000242   0.0128896   0.0074392
           HY22          0.0000131  -0.0000259  -0.0000080   0.0001541   0.0062144
           HZ22          0.0000087   0.0000319   0.0000036  -0.0169470  -0.0153731
           CX23          0.0007734   0.0001281   0.0019125  -0.0029826  -0.0065493
           CY23         -0.0003054   0.0001399  -0.0006673  -0.0079283   0.0043883
           CZ23         -0.0006511   0.0003843  -0.0001888  -0.0006804  -0.0011166
           OX24         -0.0001656  -0.0002322  -0.0006647  -0.0003058  -0.0008171
           OY24          0.0000370  -0.0000122   0.0001023   0.0020611  -0.0004925
           OZ24          0.0001220  -0.0002346  -0.0000403   0.0011894   0.0014623
                             CZ12        CX13        CY13        CZ13        CX14    
           CZ12          0.7027426
           CX13         -0.0121323   0.6191134
           CY13         -0.0583353   0.2289070   0.3209495
           CZ13         -0.2852450  -0.0964546   0.0985606   0.7911502
           CX14         -0.1007712  -0.2933083  -0.1029085   0.0717515   0.6185440
           CY14         -0.0388993  -0.1257388  -0.1425427   0.0189515   0.2468502
           CZ14          0.0775149  -0.0212597  -0.0327799  -0.1634831  -0.0208018
           CX15         -0.0004793  -0.0189915  -0.0068559   0.0328652  -0.1876936
           CY15         -0.0257458   0.0097747   0.0198675   0.0261448  -0.0467593
           CZ15         -0.1166440   0.1058786   0.0681746   0.0460257   0.0433795
           CX16          0.1027409  -0.0695541  -0.0433758  -0.0361213   0.0810244
           CY16          0.0623560  -0.0409435  -0.0366889  -0.0216211   0.0433052
           CZ16          0.0400285  -0.0343408  -0.0229445  -0.0224209   0.0303435
           CX17          0.0391643   0.0850735   0.0500672   0.0282773  -0.0730335
           CY17         -0.0319014   0.0314840   0.0253726  -0.0024155  -0.0240278
           CZ17         -0.3150372  -0.0472078  -0.0436539  -0.0653780   0.0528363
           HX18          0.0298313  -0.0077072  -0.0058563   0.0050014   0.0025508
           HY18          0.0094331  -0.0129933  -0.0018090   0.0043732  -0.0039509
           HZ18         -0.0739426  -0.0261836  -0.0137917   0.0097362  -0.0016228
           HX19         -0.0150144  -0.1264980  -0.0144958   0.1213157  -0.0057799
           HY19         -0.0138692  -0.0147022  -0.0554594   0.0042051  -0.0066013
           HZ19         -0.0175506   0.1212893   0.0041477  -0.3098581  -0.0011988
           HX20          0.0024520  -0.0061961  -0.0126068  -0.0273755  -0.1229850
           HY20         -0.0001222  -0.0051714  -0.0017354  -0.0142628  -0.0667318
           HZ20          0.0019068   0.0040663   0.0031163   0.0081974  -0.1000171
           HX21          0.0000711   0.0021405  -0.0025609   0.0033148  -0.0060050
           HY21         -0.0001605  -0.0028848   0.0071494  -0.0015529   0.0000099
           HZ21         -0.0013183   0.0035155  -0.0016831  -0.0053259   0.0288187
           HX22          0.0141071   0.0009768  -0.0034079   0.0042733  -0.0006038
           HY22          0.0020971  -0.0029621   0.0069004  -0.0002398  -0.0001456
           HZ22         -0.0167842   0.0045567  -0.0004048  -0.0042162   0.0010111
           CX23          0.0006939  -0.0026413  -0.0017252  -0.0022369   0.0023893
           CY23         -0.0010694  -0.0008696  -0.0017785  -0.0013402  -0.0030824
           CZ23          0.0072541  -0.0041247  -0.0015449   0.0014522  -0.0035534
           OX24          0.0023133  -0.0009652  -0.0002263   0.0004618   0.0003408
           OY24          0.0008497  -0.0000657   0.0002503   0.0003763   0.0002078
           OZ24         -0.0030528   0.0025093   0.0014507  -0.0000500  -0.0001716
                             CY14        CZ14        CX15        CY15        CZ15    
           CY14          0.3338767
           CZ14          0.1389811   0.7739492
           CX15         -0.0271850   0.1373873   0.6973344
           CY15         -0.1007312   0.0127679   0.2611729   0.3333896
           CZ15         -0.0379365  -0.3245835  -0.0802506   0.0900969   0.7106530
           CX16          0.0302241  -0.0426998  -0.1813060  -0.0549100  -0.0138787
           CY16          0.0249590  -0.0412094  -0.0729913  -0.1325102  -0.0540940
           CZ16          0.0016949  -0.0628612  -0.0977236  -0.1000715  -0.2622123
           CX17         -0.0231323   0.0529755  -0.0175227  -0.0385503  -0.0986391
           CY17         -0.0155056   0.0207172  -0.0217502  -0.0119617  -0.0392037
           CZ17          0.0197400  -0.0435131  -0.0268659   0.0015016   0.0744118
           HX18         -0.0040123  -0.0022749   0.0003202   0.0007441  -0.0000709
           HY18          0.0052048  -0.0041675   0.0008720  -0.0006111  -0.0005504
           HZ18         -0.0039422  -0.0041246  -0.0002375  -0.0002565  -0.0014903
           HX19          0.0008547   0.0298300  -0.0035698  -0.0065926   0.0006138
           HY19          0.0056979   0.0157506  -0.0063289   0.0046992  -0.0012004
           HZ19         -0.0015199   0.0020297   0.0008701  -0.0010081   0.0023206
           HX20         -0.0670799  -0.1000738   0.0125667   0.0076079   0.0140267
           HY20         -0.1090647  -0.1070308  -0.0000438   0.0055108   0.0025668
           HZ20         -0.1069588  -0.2573819  -0.0171733  -0.0149415  -0.0180071
           HX21         -0.0068630  -0.0019715  -0.3083439  -0.1307651   0.0301434
           HY21          0.0057718  -0.0013136  -0.1297005  -0.1152616   0.0093518
           HZ21          0.0148531   0.0043326   0.0312708   0.0118696  -0.0743583
           HX22          0.0002839   0.0006684  -0.0035578  -0.0058149   0.0028665
           HY22         -0.0008260   0.0008918  -0.0059518   0.0046793  -0.0004285
           HZ22          0.0007488  -0.0001424   0.0021711  -0.0001385   0.0017546
           CX23         -0.0043636  -0.0071338   0.0216651   0.0067336  -0.0022330
           CY23          0.0055908  -0.0046359   0.0096816   0.0059194  -0.0123976
           CZ23         -0.0064123  -0.0036650   0.0138724  -0.0003069  -0.0330452
           OX24         -0.0007901   0.0009740  -0.0058416  -0.0036807  -0.0068605
           OY24         -0.0005211   0.0007056  -0.0015060  -0.0015935  -0.0010023
           OZ24          0.0016620   0.0030385   0.0001490  -0.0024562  -0.0021688
                             CX16        CY16        CZ16        CX17        CY17    
           CX16          0.6526333
           CY16          0.2187424   0.3114961
           CZ16         -0.0402807   0.0957693   0.6930229
           CX17         -0.2833489  -0.1020565   0.0616616   0.6098220
           CY17         -0.1242307  -0.1414471   0.0187057   0.2468117   0.3441485
           CZ17         -0.0194091  -0.0262284  -0.1616206  -0.0175846   0.1320852
           HX18          0.0022916  -0.0026710   0.0040680  -0.0078757  -0.0075482
           HY18         -0.0023147   0.0067188  -0.0009716  -0.0003953   0.0037947
           HZ18          0.0031587  -0.0012058  -0.0056808   0.0291674   0.0166284
           HX19         -0.0008404  -0.0001680  -0.0008983   0.0013242  -0.0048373
           HY19         -0.0006452  -0.0012087  -0.0002998  -0.0047462   0.0050487
           HZ19         -0.0008344  -0.0001646   0.0003497  -0.0027730  -0.0043654
           HX20          0.0011433  -0.0028428   0.0044094  -0.0010967   0.0001082
           HY20         -0.0032107   0.0067969  -0.0009707   0.0002739  -0.0005003
           HZ20          0.0050061  -0.0007402  -0.0039885   0.0008992   0.0007020
           HX21         -0.0084620  -0.0068586   0.0022471   0.0019170  -0.0032175
           HY21         -0.0139123  -0.0007342   0.0043311  -0.0035140   0.0046766
           HZ21         -0.0247091  -0.0122169   0.0094721  -0.0017538  -0.0038643
           HX22         -0.0063961  -0.0121938  -0.0259319  -0.1246780  -0.0688915
           HY22         -0.0045766  -0.0019407  -0.0144812  -0.0696449  -0.1140726
           HZ22          0.0019932   0.0022201   0.0084660  -0.1005162  -0.1098585
           CX23         -0.1234817  -0.0082339   0.0283521  -0.0142829   0.0014169
           CY23         -0.0099304  -0.1006993  -0.0081760  -0.0043703   0.0031255
           CZ23          0.0298318  -0.0049144  -0.2170112   0.0109742   0.0041841
           OX24         -0.0563828  -0.0029887   0.0293770   0.0051088   0.0028713
           OY24         -0.0013177   0.0251322   0.0032382  -0.0002139   0.0013620
           OZ24          0.0543040   0.0021858   0.0077098  -0.0014561  -0.0038912
                             CZ17        HX18        HY18        HZ18        HX19    
           CZ17          0.7746403
           HX18         -0.0020696   0.3060654
           HY18         -0.0010984   0.1501525   0.1150727
           HZ18          0.0033762  -0.0328471  -0.0095247   0.0698087
           HX19         -0.0024838  -0.0004764   0.0025351   0.0001051   0.1238956
           HY19         -0.0041651   0.0023114  -0.0032501   0.0014546   0.0193439
           HZ19         -0.0025096  -0.0010289   0.0008196   0.0007765  -0.1328477
           HX20          0.0009390  -0.0005532  -0.0006646  -0.0013135  -0.0001737
           HY20          0.0007115  -0.0002523  -0.0002971  -0.0006488   0.0022561
           HZ20         -0.0000522   0.0002137   0.0001758   0.0002144  -0.0011515
           HX21         -0.0021834  -0.0002598   0.0003645  -0.0000566  -0.0005012
           HY21         -0.0041675   0.0004170  -0.0007575   0.0002151   0.0001959
           HZ21         -0.0046793  -0.0000906   0.0002030   0.0000369   0.0013129
           HX22         -0.1003330  -0.0004738   0.0022890  -0.0011959   0.0003175
           HY22         -0.1083182   0.0025124  -0.0033062   0.0007178   0.0001436
           HZ22         -0.2558580  -0.0001895   0.0012670   0.0009217  -0.0008120
           CX23          0.0253088   0.0001422   0.0000395   0.0007158  -0.0003914
           CY23          0.0170135  -0.0004709   0.0003244   0.0008402   0.0004841
           CZ23          0.0080131  -0.0010943  -0.0004587   0.0013109  -0.0002748
           OX24          0.0068411  -0.0005594  -0.0001492   0.0008394   0.0000308
           OY24         -0.0028013   0.0001350  -0.0001930  -0.0001435   0.0000201
           OZ24         -0.0064328   0.0003683   0.0003139  -0.0007397   0.0002701
                             HY19        HZ19        HX20        HY20        HZ20    
           HY19          0.0418659
           HZ19         -0.0029694   0.3250440
           HX20          0.0025382  -0.0000054   0.1207779
           HY20         -0.0031518   0.0012626   0.0758261   0.1019457
           HZ20          0.0006315   0.0005649   0.1076013   0.1174557   0.2685046
           HX21         -0.0001747  -0.0001306  -0.0003587   0.0023751  -0.0002153
           HY21         -0.0001908  -0.0000073   0.0022989  -0.0036530   0.0013627
           HZ21          0.0008792  -0.0000953  -0.0013123   0.0008447   0.0008551
           HX22          0.0005019   0.0006913  -0.0002040   0.0004925  -0.0001968
           HY22         -0.0000982   0.0002141   0.0004658  -0.0008166   0.0001513
           HZ22         -0.0006283  -0.0010616  -0.0001482   0.0001451  -0.0000575
           CX23          0.0004057  -0.0003072   0.0007739  -0.0001299  -0.0019116
           CY23         -0.0008639   0.0002109   0.0003060   0.0001396  -0.0006682
           CZ23          0.0001388   0.0002489   0.0006502   0.0003845  -0.0001881
           OX24          0.0002011   0.0001743  -0.0001661   0.0002329   0.0006645
           OY24          0.0001373  -0.0000364  -0.0000365  -0.0000126   0.0001024
           OZ24         -0.0000167  -0.0001179  -0.0001218  -0.0002346  -0.0000403
                             HX21        HY21        HZ21        HX22        HY22    
           HX21          0.3217737
           HY21          0.1446893   0.1061377
           HZ21         -0.0342952  -0.0103999   0.0707820
           HX22         -0.0004547  -0.0006769  -0.0013525   0.1222597
           HY22         -0.0002860  -0.0001801  -0.0008183   0.0779428   0.1064513
           HZ22          0.0002853   0.0001100   0.0003295   0.1079836   0.1188376
           CX23         -0.0036808   0.0002901  -0.0033242  -0.0001549   0.0018428
           CY23          0.0018188  -0.0029972   0.0002962   0.0019438  -0.0032684
           CZ23          0.0006851   0.0013750   0.0001460  -0.0023822   0.0001307
           OX24          0.0015624   0.0019234   0.0017330  -0.0004352   0.0008084
           OY24          0.0008492   0.0004457   0.0005092  -0.0002719   0.0005103
           OZ24          0.0024012   0.0005001  -0.0005837   0.0006605   0.0000389
                             HZ22        CX23        CY23        CZ23        OX24    
           HZ22          0.2695590
           CX23          0.0002056   1.1112440
           CY23          0.0005820  -0.0001632   0.2630469
           CZ23         -0.0005896  -0.0000591   0.0237445   0.5931796
[...]
           HZ10             0.01610    -0.01161    -0.01091    -0.06214     0.07356
           HX11            -0.14031     0.02348     0.01727    -0.08443     0.10044
           HY11             0.13788    -0.02261    -0.01667     0.08473    -0.10085
           HZ11             0.24865    -0.03959    -0.02887     0.15766    -0.18768
           CX12            -0.01700    -0.02666     0.02360     0.00478     0.00426
           CY12            -0.00989    -0.01421     0.01262     0.00265     0.00238
           CZ12            -0.00060     0.00446    -0.00415    -0.00033    -0.00029
           CX13            -0.01869    -0.00596     0.00439     0.00430     0.00368
           CY13            -0.00153     0.00015    -0.00033     0.00075     0.00063
           CZ13             0.03667     0.01432    -0.01135    -0.00693    -0.00599
           CX14             0.01412     0.00303    -0.00219    -0.00785    -0.00663
           CY14             0.01294     0.00241    -0.00175    -0.00894    -0.00755
           CZ14             0.02095     0.00300    -0.00219    -0.01883    -0.01592
           CX15            -0.01265    -0.00832     0.00780    -0.05359    -0.04516
           CY15            -0.00670    -0.00412     0.00389    -0.02674    -0.02254
           CZ15             0.00014     0.00116    -0.00092     0.00730     0.00618
           CX16            -0.00068     0.00200    -0.00221     0.00068     0.00075
           CY16            -0.00020     0.00119    -0.00102     0.00083     0.00067
           CZ16             0.00055    -0.00004    -0.00003     0.00189     0.00172
           CX17             0.01067    -0.02060     0.02165     0.00208     0.00180
           CY17             0.01041    -0.02128     0.02267     0.00211     0.00186
           CZ17             0.01693    -0.03938     0.04077     0.00361     0.00316
           HX18             0.18843     0.28846    -0.25488    -0.05049    -0.04515
           HY18             0.10382     0.15720    -0.13876    -0.02775    -0.02478
           HZ18            -0.01866    -0.03555     0.03194     0.00564     0.00508
           HX19             0.20336     0.07285    -0.05643    -0.03884    -0.03345
           HY19             0.01496     0.00440    -0.00336    -0.00341    -0.00293
           HZ19            -0.40628    -0.14949     0.11637     0.07558     0.06520
           HX20            -0.13883    -0.02350     0.01698     0.10033     0.08485
           HY20            -0.13690    -0.02270     0.01645     0.10105     0.08551
           HZ20            -0.24610    -0.03961     0.02838     0.18743     0.15863
           HX21             0.15018     0.09638    -0.09009     0.60359     0.50818
           HY21             0.07552     0.04796    -0.04497     0.30144     0.25371
           HZ21            -0.01608    -0.01180     0.01094    -0.07390    -0.06221
           HX22            -0.11507     0.23909    -0.25092    -0.02201    -0.01924
           HY22            -0.11574     0.24192    -0.25483    -0.02217    -0.01943
           HZ22            -0.20432     0.43430    -0.45585    -0.03947    -0.03472
           CX23            -0.00019    -0.00000     0.00035    -0.00015    -0.00177
           CY23            -0.00000    -0.00039    -0.00000    -0.00025     0.00002
           CZ23            -0.00000    -0.00081    -0.00000    -0.00007     0.00001
           OX24             0.00021    -0.00000     0.00021     0.00008     0.00088
           OY24            -0.00000     0.00009    -0.00000     0.00020    -0.00002
           OZ24            -0.00000     0.00039     0.00000     0.00042    -0.00004


 Normal Modes of low/zero frequencies

                                  1           2           3           4           5
 Wavenumbers [cm-1]            0.00        0.00        0.00        0.00        0.00
 Intensities [km/mol]          0.00        0.00        0.00        0.00        0.00
 Intensities [relative]        0.00        0.00        0.00        0.00        0.00
           CX1             -0.00000     0.00000    -0.00000    -0.00000    -0.00000
           CY1              0.05195     0.12511    -0.01714    -0.03255    -0.01927
           CZ1              0.06072    -0.01492    -0.02181     0.01950     0.03082
           CX2             -0.00891     0.02122    -0.02763     0.01714     0.00686
           CY2              0.03691     0.12219    -0.04401    -0.00012    -0.03279
           CZ2              0.06415    -0.00173    -0.02208     0.01099     0.04202
           CX3             -0.01212     0.02687    -0.02345     0.02463     0.02326
           CY3              0.03190     0.08665    -0.01243     0.01578    -0.03313
           CZ3              0.06551    -0.00608    -0.02275     0.00799     0.03392
           CX4             -0.00654     0.01162     0.00773     0.01520     0.03267
           CY4              0.04204     0.05367     0.04660    -0.00089    -0.01981
           CZ4              0.06359    -0.02348    -0.02318     0.01316     0.01454
           CX5              0.00224    -0.00920     0.03439    -0.00173     0.02537
           CY5              0.05730     0.05666     0.07381    -0.03379    -0.00610
           CZ5              0.06036    -0.03639    -0.02295     0.02121     0.00336
           CX6              0.00560    -0.01527     0.03113    -0.00947     0.00930
           CY6              0.06215     0.09229     0.04184    -0.04938    -0.00592
           CZ6              0.05881    -0.03230    -0.02224     0.02465     0.01146
           HX7              0.00255    -0.00455    -0.00290    -0.00591    -0.01262
           HY7              0.05577     0.15279    -0.04187    -0.04478    -0.01908
           HZ7              0.05959    -0.01163    -0.02127     0.02200     0.03713
           HX8             -0.01338     0.03341    -0.05243     0.02471    -0.00051
           HY8              0.02907     0.14745    -0.08937     0.01280    -0.04306
           HZ8              0.06577     0.01192    -0.02178     0.00665     0.05702
           HX9             -0.01910     0.04352    -0.04533     0.03804     0.02839
           HY9              0.02025     0.08460    -0.03350     0.04088    -0.04363
           HZ9              0.06823     0.00432    -0.02297     0.00123     0.04271
           HX10             0.00634    -0.02040     0.05740    -0.00864     0.03240
           HY10             0.06522     0.03086     0.12000    -0.04682     0.00432
           HZ10             0.05911    -0.04953    -0.02334     0.02465    -0.01162
           HX11             0.01249    -0.03167     0.05243    -0.02273     0.00392
           HY11             0.07387     0.09446     0.06290    -0.07464     0.00463
           HZ11             0.05619    -0.04251    -0.02204     0.03117     0.00274
           CX12            -0.01149     0.01549     0.04875     0.03004     0.09216
           CY12            -0.00972     0.03427    -0.03487     0.11208    -0.06521
           CZ12             0.05163    -0.02534    -0.01964     0.04111     0.03330
           CX13            -0.02042     0.03675     0.02104     0.04721     0.09900
           CY13            -0.01359     0.00156    -0.00434     0.12515    -0.06484
           CZ13             0.05864    -0.01886    -0.02140     0.02452     0.02937
           CX14            -0.02602     0.05204    -0.01013     0.05669     0.08968
           CY14            -0.00093    -0.02659     0.05413     0.10239    -0.04978
           CZ14             0.06786    -0.01524    -0.02401     0.00288     0.01776
           CX15            -0.02266     0.04596    -0.01336     0.04894     0.07362
           CY15             0.01555    -0.02200     0.08194     0.06665    -0.03513
           CZ15             0.07002    -0.01818    -0.02484    -0.00204     0.01009
           CX16            -0.01387     0.02510     0.01336     0.03199     0.06634
           CY16             0.01949     0.01117     0.05100     0.05336    -0.03549
           CZ16             0.06317    -0.02429    -0.02310     0.01419     0.01424
           CX17            -0.00829     0.00984     0.04459     0.02254     0.07577
           CY17             0.00675     0.03921    -0.00749     0.07631    -0.05061
           CZ17             0.05393    -0.02791    -0.02049     0.03585     0.02586
           HX18            -0.00702     0.00331     0.07356     0.02247     0.09954
           HY18            -0.01947     0.05591    -0.07985     0.12961    -0.07681
           HZ18             0.04439    -0.02840    -0.01761     0.05811     0.04213
           HX19            -0.02297     0.04131     0.02391     0.05313     0.11161
           HY19            -0.02641    -0.00212    -0.02583     0.15296    -0.07622
           HZ19             0.05690    -0.01671    -0.02074     0.02848     0.03526
           HX20            -0.03292     0.06847    -0.03149     0.06997     0.09504
           HY20            -0.00390    -0.05210     0.07803     0.11249    -0.04945
           HZ20             0.07329    -0.01029    -0.02537    -0.00996     0.01463
           HX21            -0.02676     0.05717    -0.03641     0.05585     0.06657
           HY21             0.02552    -0.04394     0.12771     0.04869    -0.02329
           HZ21             0.07700    -0.01581    -0.02683    -0.01838     0.00082
           HX22            -0.00130    -0.00683     0.06650     0.00913     0.07064
           HY22             0.00965     0.06460    -0.03140     0.06637    -0.05099
           HZ22             0.04841    -0.03305    -0.01911     0.04893     0.02892
           CX23            -0.01020     0.01836     0.01055     0.02359     0.04950
           CY23             0.03776     0.01376     0.08476     0.01412    -0.01895
           CZ23             0.06561    -0.02810    -0.02407     0.00864     0.00491
           OX24            -0.01020     0.01835     0.01057     0.02359     0.04951
           OY24             0.04892    -0.01602     0.14211    -0.00521    -0.00507
           OZ24             0.06918    -0.03484    -0.02555     0.00060    -0.01022

                                  6           7
 Wavenumbers [cm-1]            0.00       41.60
 Intensities [km/mol]          0.00        0.00
 Intensities [relative]        0.00        0.00
           CX1              0.12494    -0.00704
           CY1              0.00307    -0.05981
           CZ1             -0.01962     0.00030
           CX2              0.10370     0.01888
           CY2              0.00506     0.01978
           CZ2             -0.03231    -0.02894
           CX3              0.07711     0.02075
           CY3              0.00302     0.06211
           CZ3             -0.01928    -0.02822
           CX4              0.07176    -0.00062
           CY4             -0.00105     0.02841
           CZ4              0.00669    -0.00013
           CX5              0.09342    -0.02391
           CY5             -0.00306    -0.04862
           CZ5              0.01955     0.02851
           CX6              0.11976    -0.02904
           CY6             -0.00099    -0.09424
           CZ6              0.00634     0.02925
           HX7              0.14551    -0.01028
           HY7              0.00467    -0.09467
           HZ7             -0.02983     0.00066
           HX8              0.10775     0.03658
           HY8              0.00818     0.04717
           HZ8             -0.05227    -0.05249
           HX9              0.06080     0.03967
           HY9              0.00457     0.11931
           HZ9             -0.02922    -0.04960
           HX10             0.08933    -0.03890
           HY10            -0.00624    -0.07417
           HZ10             0.03987     0.04848
           HX11             0.13629    -0.04885
           HY11            -0.00255    -0.15609
           HZ11             0.01628     0.05215
           CX12            -0.01579    -0.01893
           CY12             0.00505     0.01978
           CZ12            -0.03229    -0.02896
           CX13            -0.03702     0.00706
           CY13             0.00307    -0.05979
           CZ13            -0.01961     0.00037
           CX14            -0.03183     0.02911
           CY14            -0.00099    -0.09421
           CZ14             0.00633     0.02936
           CX15            -0.00549     0.02396
           CY15            -0.00306    -0.04861
           CZ15             0.01954     0.02859
           CX16             0.01616     0.00060
           CY16            -0.00105     0.02842
           CZ16             0.00670    -0.00012
           CX17             0.01079    -0.02082
           CY17             0.00302     0.06211
           CZ17            -0.01926    -0.02826
           HX18            -0.01986    -0.03665
           HY18             0.00818     0.04716
           HZ18            -0.05225    -0.05252
           HX19            -0.05759     0.01032
           HY19             0.00467    -0.09463
           HZ19            -0.02982     0.00077
           HX20            -0.04834     0.04898
           HY20            -0.00255    -0.15605
           HZ20             0.01626     0.05233
           HX21            -0.00138     0.03900
           HY21            -0.00624    -0.07418
           HZ21             0.03986     0.04860
           HX22             0.02710    -0.03978
           HY22             0.00457     0.11931
           HZ22            -0.02920    -0.04967
           CX23             0.04396    -0.00001
           CY23            -0.00354     0.06514
           CZ23             0.02258     0.00059
           OX24             0.04396     0.00000
           OY24            -0.00750     0.10963
           OZ24             0.04793    -0.00167


 Frequencies dumped to record   5400.2

 Zero point energy:  0.20366409 [H]    44699.10 [1/CM]      534.72 [KJ/MOL]
 Frequency information read from record  5400.2


 **********************************************************************************************************************************
 DATASETS  * FILE   NREC   LENGTH (MB)   RECORD NAMES
              1      18       32.42       500      610      700      900      950      970     1000      129      960     1100   
                                          VAR    BASINP    GEOM    SYMINP    ZMAT    AOBASIS   BASIS     P2S    ABASIS      S 
                                         1400     1410     1200     1210     1080     1600     1650     1700   
                                           T        V       H0       H01     AOSYM     SMH    MOLCAS    OPER   

              2       7        3.58       700     1000      520     2100     5300     5450     5400   
                                         GEOM     BASIS   MCVARS     RHF     HESS     NMOD     FREQ   

              4       5      107.48      4100     4000     4200     4300     4400   

 PROGRAMS   *        TOTAL      FREQ      OPTG    HF-SCF       INT
 CPU TIMES  *    195385.75  89962.02 103526.13   1874.02     23.43
 REAL TIME  *     53547.27 SEC
 DISK USED  *        41.47 MB (local),        7.58 GB (total)
 SF USED    *       107.48 MB
 GA USED    *         0.01 MB       (max)       0.00 MB       (current)
 **********************************************************************************************************************************

 Dump information in style MOLDEN to benzophenone.molden                                                             

 Molecular orbitals read from record     2100.2  Type=RHF/CANONICAL  
 Occupation numbers read from record     2100.2  Type=RHF/RHF  
 Orbital energies read from record       2100.2  Type=RHF/CANONICAL  
 Redundancy group numbers read from rec  2100.2  Type=RHF/RHF  

 DUMP ORBITAL  1.1 AS ORBITAL    1  occ=    2.0000  eig=  -20.5400  GROUP=   2
 DUMP ORBITAL  2.1 AS ORBITAL    2  occ=    2.0000  eig=  -11.3336  GROUP=   2
 DUMP ORBITAL  3.1 AS ORBITAL    3  occ=    2.0000  eig=  -11.2466  GROUP=   2
 DUMP ORBITAL  4.1 AS ORBITAL    4  occ=    2.0000  eig=  -11.2466  GROUP=   2
 DUMP ORBITAL  5.1 AS ORBITAL    5  occ=    2.0000  eig=  -11.2452  GROUP=   2
 DUMP ORBITAL  6.1 AS ORBITAL    6  occ=    2.0000  eig=  -11.2452  GROUP=   2
 DUMP ORBITAL  7.1 AS ORBITAL    7  occ=    2.0000  eig=  -11.2446  GROUP=   2
 DUMP ORBITAL  8.1 AS ORBITAL    8  occ=    2.0000  eig=  -11.2446  GROUP=   2
 DUMP ORBITAL  9.1 AS ORBITAL    9  occ=    2.0000  eig=  -11.2413  GROUP=   2
 DUMP ORBITAL 10.1 AS ORBITAL   10  occ=    2.0000  eig=  -11.2413  GROUP=   2
 DUMP ORBITAL 11.1 AS ORBITAL   11  occ=    2.0000  eig=  -11.2397  GROUP=   2
 DUMP ORBITAL 12.1 AS ORBITAL   12  occ=    2.0000  eig=  -11.2397  GROUP=   2
 DUMP ORBITAL 13.1 AS ORBITAL   13  occ=    2.0000  eig=  -11.2380  GROUP=   2
 DUMP ORBITAL 14.1 AS ORBITAL   14  occ=    2.0000  eig=  -11.2380  GROUP=   2
 DUMP ORBITAL 15.1 AS ORBITAL   15  occ=    2.0000  eig=   -1.4052  GROUP=   2
 DUMP ORBITAL 16.1 AS ORBITAL   16  occ=    2.0000  eig=   -1.1728  GROUP=   2
 DUMP ORBITAL 17.1 AS ORBITAL   17  occ=    2.0000  eig=   -1.1665  GROUP=   2
 DUMP ORBITAL 18.1 AS ORBITAL   18  occ=    2.0000  eig=   -1.0569  GROUP=   2
 DUMP ORBITAL 19.1 AS ORBITAL   19  occ=    2.0000  eig=   -1.0320  GROUP=   2
 DUMP ORBITAL 20.1 AS ORBITAL   20  occ=    2.0000  eig=   -1.0294  GROUP=   2
 DUMP ORBITAL 21.1 AS ORBITAL   21  occ=    2.0000  eig=   -1.0259  GROUP=   2
 DUMP ORBITAL 22.1 AS ORBITAL   22  occ=    2.0000  eig=   -0.8940  GROUP=   2
 DUMP ORBITAL 23.1 AS ORBITAL   23  occ=    2.0000  eig=   -0.8477  GROUP=   2
 DUMP ORBITAL 24.1 AS ORBITAL   24  occ=    2.0000  eig=   -0.8417  GROUP=   2
 DUMP ORBITAL 25.1 AS ORBITAL   25  occ=    2.0000  eig=   -0.8303  GROUP=   2
 DUMP ORBITAL 26.1 AS ORBITAL   26  occ=    2.0000  eig=   -0.7704  GROUP=   2
 DUMP ORBITAL 27.1 AS ORBITAL   27  occ=    2.0000  eig=   -0.7296  GROUP=   2
 DUMP ORBITAL 28.1 AS ORBITAL   28  occ=    2.0000  eig=   -0.7021  GROUP=   2
 DUMP ORBITAL 29.1 AS ORBITAL   29  occ=    2.0000  eig=   -0.6654  GROUP=   2
 DUMP ORBITAL 30.1 AS ORBITAL   30  occ=    2.0000  eig=   -0.6542  GROUP=   2
 DUMP ORBITAL 31.1 AS ORBITAL   31  occ=    2.0000  eig=   -0.6390  GROUP=   2
 DUMP ORBITAL 32.1 AS ORBITAL   32  occ=    2.0000  eig=   -0.6323  GROUP=   2
 DUMP ORBITAL 33.1 AS ORBITAL   33  occ=    2.0000  eig=   -0.6152  GROUP=   2
 DUMP ORBITAL 34.1 AS ORBITAL   34  occ=    2.0000  eig=   -0.6097  GROUP=   2
 DUMP ORBITAL 35.1 AS ORBITAL   35  occ=    2.0000  eig=   -0.6007  GROUP=   2
 DUMP ORBITAL 36.1 AS ORBITAL   36  occ=    2.0000  eig=   -0.5999  GROUP=   2
 DUMP ORBITAL 37.1 AS ORBITAL   37  occ=    2.0000  eig=   -0.5545  GROUP=   2
 DUMP ORBITAL 38.1 AS ORBITAL   38  occ=    2.0000  eig=   -0.5262  GROUP=   2
 DUMP ORBITAL 39.1 AS ORBITAL   39  occ=    2.0000  eig=   -0.5238  GROUP=   2
 DUMP ORBITAL 40.1 AS ORBITAL   40  occ=    2.0000  eig=   -0.5164  GROUP=   2
 DUMP ORBITAL 41.1 AS ORBITAL   41  occ=    2.0000  eig=   -0.5048  GROUP=   2
 DUMP ORBITAL 42.1 AS ORBITAL   42  occ=    2.0000  eig=   -0.5024  GROUP=   2
 DUMP ORBITAL 43.1 AS ORBITAL   43  occ=    2.0000  eig=   -0.4951  GROUP=   2
 DUMP ORBITAL 44.1 AS ORBITAL   44  occ=    2.0000  eig=   -0.4188  GROUP=   2
 DUMP ORBITAL 45.1 AS ORBITAL   45  occ=    2.0000  eig=   -0.3511  GROUP=   2
 DUMP ORBITAL 46.1 AS ORBITAL   46  occ=    2.0000  eig=   -0.3469  GROUP=   2
 DUMP ORBITAL 47.1 AS ORBITAL   47  occ=    2.0000  eig=   -0.3460  GROUP=   2
 DUMP ORBITAL 48.1 AS ORBITAL   48  occ=    2.0000  eig=   -0.3439  GROUP=   2

 Total charge:      96.000000
 Frequency information read from record  5400.2

 **********************************************************************************************************************************

 HF/6-311G(D,P)//HF/6-311G(D,P) energy=   -573.108793387726

    OPTG(HF-SCF)          HF-SCF
   -573.10879339   -572.46474837
 **********************************************************************************************************************************
 Molpro calculation terminated
