[Molden Format]
[Molpro variables]
_NUMVAR=  1041.000000000000    
_AVOGAD= 0.6022140760000000E+24
_BOLTZ= 0.1380649000000000E-22
_CLIGHTSI=  299792458.0000000    
_JOULE= 0.4359744722207100E-17
_JPCAL=  4.184000000000000    
_PLANCK= 0.6626070150000000E-33
_BOHR= 0.5291772109030000E-10
_ECHARG= 0.1602176634000000E-18
_ENULL= 0.8854187812800001E-11
_MU= 0.1660539066600000E-26
_EMASS= 0.9109383701500001E-30
_AMU2AU=  1822.888486217313    
_CLIGHT=  29979245800.00000    
_EV= 0.3674932217565494E-01
_KJOULE= 0.3808798847133432E-03
_KJOULE/MOL= 0.3808798847133432E-03
_CM= 0.4556335252912009E-05
_CM-1= 0.4556335252912009E-05
_DEB2SI= 0.3335640951981520E-29
_KCAL= 0.1593601437640628E-02
_KCAL/MOL= 0.1593601437640628E-02
_KELVIN= 0.3166811563455608E-05
_HERTZ= 0.1519829846057038E-15
_HZ= 0.1519829846057038E-15
_TOA= 0.5291772109030000    
_TOANG= 0.5291772109030000    
_TORAD= 0.1745329251994330E-01
_TOCM=  219474.6313631965    
_TODEBYE=  2.541746473194078    
_TOE= 0.4803204712570263E-09
_TOEV=  27.21138624598803    
_TOHERTZ=  6579683920501656.    
_TOHZ=  6579683920501656.    
_TOK=  315775.0248040668    
_TOKCAL=  627.5094740630558    
_TOKELVIN=  315775.0248040668    
_TOKJ=  2625.499639479825    
_TOKJOULE=  2625.499639479825    
_TOKG= 0.1660539066600000E-26
_ANG=  1.889726124625770    
_ANGSTROM=  1.889726124625770    
_RPAREF=  0.000000000000000    
_RPADISS=  0.000000000000000    
_IGNORE_UNDEF=  2.000000000000000    
_STRICTCHECK=  0.000000000000000    
!SEWARD=  0.000000000000000    
!MULTI=  0.000000000000000    
!DFMULTI=  0.000000000000000    
_SEW_ONEEL=  0.000000000000000    
_CPPDONE=FALSE
_DKROLL_DONE=  0.000000000000000    
_FNUC_DONE=  0.000000000000000    
_FOCKDONE=TRUE
_GRADONE=FALSE
_HESSDONE=TRUE
_INTDONE=TRUE
_SCFDONE=TRUE
_MODUL_BLOCK=FALSE
_MODUL_SLATER=FALSE
_MODUL_MRCC=FALSE
_MODUL_NBO6=FALSE
_MODUL_NECI=FALSE
_MODUL_AIMS=TRUE
_MODUL_HDF5=FALSE
_MODUL_GECCO=FALSE
_ISWINDOWS=FALSE
_MRCC_EXEC=
_FITC_AO_SAVED=FALSE
_FITC_MO_SAVED=FALSE
_SHARED_FS=TRUE
_LSTYP=SEWARD
_INTYP=INTS
_GEOMTYP=ZMAT
_GRADTYP=ALASKA
_DIRECT=FALSE
_DKHO= -1.000000000000000    
_FNUC=  0.000000000000000    
_SYNCM=  0.000000000000000    
_BASIS=6-311G(D,P)
_ZCENTRE=MASS
_ZORIENT=  1.000000000000000    
_NELEC=  10.00000000000000    
!SPIN=  0.000000000000000    
_OPTCONV= 0.1442822605609779E-07
_QSDSTEP=  0.000000000000000    
_QSDIRC=  0.000000000000000    
_PROGRAM=FREQ
_CPUSTEP=  0.000000000000000    
_SYSSTEP=  0.000000000000000    
_WALLSTEP=  0.000000000000000    
!DFMP2=  0.000000000000000    
!DFSCF=  0.000000000000000    
!SCSGRD=  0.000000000000000    
_NCEN=  3.000000000000000    
_CPUTOT=  13.00000000000000    
_CPUCCSD=  0.000000000000000    
_SYSCCSD=  0.000000000000000    
_WALLCCSD=  0.000000000000000    
_CPUF12=  0.000000000000000    
_SYSF12=  0.000000000000000    
_WALLF12=  0.000000000000000    
_CPUF12B=  0.000000000000000    
_SYSF12B=  0.000000000000000    
_WALLF12B=  0.000000000000000    
_CPUTRANS=  0.000000000000000    
_SYSTRANS=  0.000000000000000    
_WALLTRANS=  0.000000000000000    
_DFTEXFAC=  1.000000000000000    
_DMX=  0.000000000000000    
_DMY=  0.000000000000000    
_DMZ= 0.8185847598880757    
_DMX_SCF=  0.000000000000000    
_DMY_SCF=  0.000000000000000    
_DMZ_SCF= 0.8624094439673793    
_FREQUENCIES= 0.1664641053554709E-04
_HOMO=  1.200000000000000    
_EHOMO=-0.5004305766914456    
_LUMO=  4.100000000000000    
_ELUMO= 0.1498404596581683    
_ENERGC= -76.27144140370274    
_ENERGR= -76.04632557148867    
_ENERGY= -76.27144140370274    
_ENERGY_METHOD=CCSD
_ENERGY_BASIS=6-311G(D,P)
_GEOMETRY_METHOD=
_GEOMETRY_BASIS=
_ENUC=  9.198730874687985    
_FREQSTEP=  10.00000000000000    
_GRADENERG= -76.27140686327608    
_GRADEXFAC=  9999.000000000000    
_GRADMETHOD=  12.00000000000000    
_NMRMETHOD=  0.000000000000000    
_NMRMAGNET=  0.000000000000000    
_GRADRECORD=TRUE
_VIRIAL=-0.1412612854930400E-03
!GRID_FREEZE= -1.000000000000000    
!NEESE_INDEX=  0.000000000000000    
_ITERATIONS=  9.000000000000000    
_LASTNELEC=  10.00000000000000    
_LASTSPIN=  0.000000000000000    
_LASTSYM=  1.000000000000000    
_MPP_PROG=  1.000000000000000    
_MSNSTATES=  0.000000000000000    
_RS2PHASE=  0.000000000000000    
_IPROC_MPP=  0.000000000000000    
_IPROC_MPPX=  0.000000000000000    
_NPROC_MPP=  6.000000000000000    
_NPROC_MPPX=  6.000000000000000    
_NPROC_SMP=  6.000000000000000    
_NUMSTEP=  0.000000000000000    
_OPTCONVMX= 0.8215298548512934E-08
_OPTCONVRMS= 0.8330140192639182E-08
_OPTGRAD= 0.1357791964853223E-07
_OPTGRADMX= 0.7836073123712595E-08
_OPTGRADRMS= 0.4525973216177409E-08
_OPTSTEP=  5.000000000000000    
_ORBITAL=  2100.200000000000    
_PI=  3.141592653589793    
_SEIG_MIN= 0.1773927983111797E-01
_SEWPROP=TRUE
_STATUS= -1.000000000000000    
_SYSTOT= 0.7500000000000000    
_VERSION=  2022003.000000000    
_WALLTOT=  8.060000000000000    
_ZPE= 0.2184988582005737E-01
_DATE=25-Aug-25
_LASTORB=0
_METHODC=CCSD
_OUTPUT=/home/lme/overlap_integral_gaussian/molpro_files/h2o/ccsd/h2o_ccsd.out
_PGROUP=C2v
_TIME=22:03:55
_LIBMOL=/usr/local/molpro/molpro_2022.3.0_sockets/lib/
_VIGRDC=  0.000000000000000    
!VIBCNT=  0.000000000000000    
!RGHFCNT=  0.000000000000000    
!SURFREC=  0.000000000000000    
!XSURFREC=  0.000000000000000    
!XPOLYREC=  0.000000000000000    
!ROTREC=  0.000000000000000    
!POLYREC=  0.000000000000000    
!DIPREC=  0.000000000000000    
!DIP4DREC=  0.000000000000000    
!DIPROT=  0.000000000000000    
!DIP4DROT=  0.000000000000000    
!PTREC=  0.000000000000000    
!PT4DREC=  0.000000000000000    
!VSCFREC=  0.000000000000000    
!VCIREC=  0.000000000000000    
!PVCIREC=  0.000000000000000    
!VMP2REC=  0.000000000000000    
!VMCSCFREC=  0.000000000000000    
!VMRCIREC=  0.000000000000000    
!VIBSTATEREC=  0.000000000000000    
!VIBSTATECNT=  0.000000000000000    
!VIBINFO=  0.000000000000000    
!GAREC=  0.000000000000000    
!SCFORB=  21002.00000000000    
!CIOCC=  3.000000000000000    
!CICORE=  1.000000000000000    
!DEFCORE=  1.000000000000000    
!SCORE=  0.000000000000000    
!CICLOS=  3.000000000000000    
!CIISTSYM=  1.000000000000000    
!CIISTMS2=  0.000000000000000    
!CIISTNEL=  8.000000000000000    
!NEWMOL= -1.000000000000000    
!NEWSYM= -1.000000000000000    
_SLFILES=slscratch
_NGSSTO=  9.000000000000000    
_SIN=SIN
_COS=COS
_TAN=TAN
_ACOS=ACOS
_ASIN=ASIN
_ATAN=ATAN
_COSH=COSH
_SINH=SINH
_TANH=TANH
_ABS=ABS
_MOD=MOD
_ERF=ERF
_REFC=REFC
_ERFC=ERFC
_HYPOT=HYPOT
_J0=J0
_J1=J1
_JN=JN
_GAMMA=GAMMA
_LGAMMA=LGAMMA
_Y0=Y0
_Y1=Y1
_YN=YN
_EXP=EXP
_LOG=LOG
_LOG10=LOG10
_SQRT=SQRT
_INT=INT
_NINT=NINT
_MAX=MAX
_MIN=MIN
_COSMO=  0.000000000000000    
_COSMOIT=  0.000000000000000    
_COSMOES=  0.000000000000000    
_COSMOEDS=  0.000000000000000    
_COSMOEC=  0.000000000000000    
_COSMOEDCORR=  0.000000000000000    
_FEPSI=  1.000000000000000    
_SL_IsMM=  0.000000000000000    
_SL_NSYM=  4.000000000000000    
_SL_System_BitSw=  0.000000000000000    
_SL_Unique_atoms=  0.000000000000000    
_SL_GRAD=  0.000000000000000    
_SL_MAXUPD_Hess=  5.000000000000000    
_SL_N_PRINT_COD=  5.000000000000000    
_SL_PRINT_CODES=  0.000000000000000    
_SL_BasType=  0.000000000000000    
_SL_Energy_Pred=  0.000000000000000    
_SL_New_Coords=  0.000000000000000    
_SL_Total_Nuclea=  0.000000000000000    
_SL_Highest_Mltp=  0.000000000000000    
_SL_Ref_Geom=  0.000000000000000    
_SL_Symmetry_ope=  4.000000000000000    
_SL_agrad=  0.000000000000000    
_SL_GrdMax=  0.000000000000000    
_SL_GrdNorm=  0.000000000000000    
_SL_GrdRMS=  0.000000000000000    
_SL_Hss_Q=  0.000000000000000    
_SL_Hss_X=  0.000000000000000    
_SL_BMxOld=  0.000000000000000    
_SL_KtB=  0.000000000000000    
_SL_TROld=  0.000000000000000    
_SL_No_of_Intern=  0.000000000000000    
_SL_Hess=  0.000000000000000    
_SL_K=  0.000000000000000    
!LATTICE= -1.000000000000000    
!NEWLATTICE=  0.000000000000000    
!LATGRAD_VAR=FALSE
!SEW_LATTICE=  1.000000000000000    
!AIC_ONEEL=  0.000000000000000    
!LOCAL=  0.000000000000000    
!SAVEDOM= -1.000000000000000    
!RESTDOM= -1.000000000000000    
!SAVEDOM_HF= -1.000000000000000    
!RESTDOM_HF= -1.000000000000000    
!HESSREC=  5300.200000000000    
!FREQREC=  5400.200000000000    
!NMODREC=  5450.200000000000    
!GTASKS=  0.000000000000000    
!HTASKS=  0.000000000000000    
!SAVEDOM_EOM= -1.000000000000000    
!RESTDOM_EOM= -1.000000000000000    
!GRADSTATE= -1.000000000000000    
!DEBUG=  0.000000000000000    
!CFIT_CPHF=  0.000000000000000    
!RDOMAUX_CPHF=  0.000000000000000    
!THRAO_CPHF= 0.1000000000000000E-11
!THRMO_CPHF= 0.1000000000000000E-11
!THROV_CPHF= 0.1000000000000000E-11
!THRSW_CPHF= 0.1000000000000000E-11
!THRPROD_CPHF= 0.1000000000000000E-11
!THRAOPR_CPHF= 0.1000000000000000E-11
!CFIT_SCFGRD=  0.000000000000000    
!RDOMAUX_SCFGRD=  0.000000000000000    
!THRAO_SCFGRD= 0.1000000000000000E-11
!THRMO_SCFGRD= 0.1000000000000000E-11
!THROV_SCFGRD= 0.1000000000000000E-11
!THRSW_SCFGRD= 0.1000000000000000E-11
!THRPROD_SCFGRD= 0.1000000000000000E-11
!THRAOPR_SCFGRD= 0.1000000000000000E-11
!LOCFIT_SCF=  0.000000000000000    
!LOCFIT_MP2=  0.000000000000000    
_RIDOM=  0.000000000000000    
!CC2_METHOD=  0.000000000000000    
_BASIS2006=FALSE
_SVDDEL= -1.000000000000000    
_SVDDELA= -1.000000000000000    
_SVDDELP= -1.000000000000000    
_SVDDELF= -1.000000000000000    
_SVDDELS= -1.000000000000000    
_SVDDEL_ABS= -1.000000000000000    
_SVDDELA_ABS= -1.000000000000000    
_SVDDELP_ABS= -1.000000000000000    
_SVDDELF_ABS= -1.000000000000000    
_SVDDELS_ABS= -1.000000000000000    
_MAXBASIS=  0.000000000000000    
!OPT_CONICAL=  0.000000000000000    
!CLEARSP_JGRID=  0.000000000000000    
_GRDHYBR=  0.000000000000000    
_STATEGRAD=  1.000000000000000    
_4EXT_NDISKS=  1.000000000000000    
!EMBEDFLAG=  1.000000000000000    
!EMBED=FALSE
!EMBED_F12=FALSE
!EMBEDNUC=  0.000000000000000    
_EMBEDENERGY=  0.000000000000000    
!EMBED_DFC=FALSE
!NUM_VOIDS=  0.000000000000000    
_IBODY=  0.000000000000000    
_EMBE_CORR=  0.000000000000000    
!EMBED_PROJ=FALSE
!EMB_PROJ_ZMU=  1000000.000000000    
!CORRECTION_HF=  0.000000000000000    
!EMBED_AORB=  0.000000000000000    
!EMBED_NACORR=  0.000000000000000    
!EMBED_MP2=FALSE
!EMBED_TRUNC_PERTURBATION=FALSE
!EMBED_FROZEN=  0.000000000000000    
!EMBED_ACTIVE=  0.000000000000000    
_CHANGE_BASIS=FALSE
_RESTORE_BASIS=FALSE
_FIX_EMBED_GUESS=FALSE
_EMBED_SCF=FALSE
_HUZINAGA_T=FALSE
_HUZINAGA_F=FALSE
_HUZINAGA=FALSE
_HUZINAGA_CORRECT=FALSE
!FASTLATGRAD=  1.000000000000000    
!FASTVLAMBDA= -1.000000000000000    
!IFORCE= -1.000000000000000    
!USESYM= -1.000000000000000    
_SINDEX=  0.000000000000000    
_AVDOM_OSV=  0.000000000000000    
_AVDOM_PNO=  0.000000000000000    
_AVDOM_PAO=  0.000000000000000    
_AVDOM_LMO=  0.000000000000000    
!CPP_PROG=CCSD-GRAD
_CC2OSV_FLAG=  0.000000000000000    
_EOMCCSD_CONV=FALSE
_TMADC2_FLAG=FALSE
_PROPADC2_FLAG=FALSE
_LEN_VirQ=  0.000000000000000    
_GRDCC2LR_FLAG=FALSE
_GRDADC2_FLAG=FALSE
_RO_VGLOBAL=  0.000000000000000    
_OPT=FALSE
_FREQ=FALSE
_HESS=FALSE
_CMRCC_callName=EMPTY
_CMRCC_callCount=  0.000000000000000    
_GECCO_CIROOT=  1.000000000000000    
_SYM_CATION=  2.000000000000000    
_MON_A=FALSE
_MON_B=FALSE
GX1=  0.000000000000000    
GY1= 0.7477852659335489    
GZ1= 0.5307424071716648    
GX2=  0.000000000000000    
GY2=  0.000000000000000    
GZ2=-0.6688321053482427E-01
GX3=  0.000000000000000    
GY3=-0.7477852659335489    
GZ3= 0.5307424071716648    
HX1=  0.000000000000000    
HY1=  1.413109352644856    
HZ1=  1.002957792279063    
OX2=  0.000000000000000    
OY2=  0.000000000000000    
OZ2=-0.1263909502465030    
HX3=  0.000000000000000    
HY3= -1.413109352644856    
HZ3=  1.002957792279063    
[Atoms] Angs
H     1    1         0.0000000000        0.7477852659        0.5307424072
O     2    8         0.0000000000        0.0000000000       -0.0668832105
H     3    1         0.0000000000       -0.7477852659        0.5307424072
[GTO]
   1 0
 s    3  1.00
  0.3386500000D+02  0.2549381454D-01
  0.5094790000D+01  0.1903731086D+00
  0.1158790000D+01  0.8521614860D+00
 s    1  1.00
  0.3258400000D+00  0.1000000000D+01
 s    1  1.00
  0.1027410000D+00  0.1000000000D+01
 p    1  1.00
  0.7500000000D+00  0.1000000000D+01
  
   3 0
 s    3  1.00
  0.3386500000D+02  0.2549381454D-01
  0.5094790000D+01  0.1903731086D+00
  0.1158790000D+01  0.8521614860D+00
 s    1  1.00
  0.3258400000D+00  0.1000000000D+01
 s    1  1.00
  0.1027410000D+00  0.1000000000D+01
 p    1  1.00
  0.7500000000D+00  0.1000000000D+01
  
   2 0
 s    6  1.00
  0.8588500000D+04  0.1895150083D-02
  0.1297230000D+04  0.1438590063D-01
  0.2992960000D+03  0.7073200310D-01
  0.8737710000D+02  0.2400010105D+00
  0.2567890000D+02  0.5947970261D+00
  0.3740040000D+01  0.2808020123D+00
 s    3  1.00
  0.4211750000D+02  0.1138890124D+00
  0.9628370000D+01  0.9208111006D+00
  0.2853320000D+01 -0.3274470358D-02
 s    1  1.00
  0.9056610000D+00  0.1000000000D+01
 s    1  1.00
  0.2556110000D+00  0.1000000000D+01
 p    3  1.00
  0.4211750000D+02  0.3651139738D-01
  0.9628370000D+01  0.2371529830D+00
  0.2853320000D+01  0.8197019412D+00
 p    1  1.00
  0.9056610000D+00  0.1000000000D+01
 p    1  1.00
  0.2556110000D+00  0.1000000000D+01
 d    1  1.00
  0.1292000000D+01  0.1000000000D+01


[MO]
 Sym=      1.1
 Ene=     -20.5459
 Spin= Alpha
 Occup=    2.000000
1 0.000204496125051
2 0.000111385564512
3 0.000090394970838
4 0.0
5 -0.000084126781812
6 -0.000030349612103
7 0.000204496125051
8 0.000111385564512
9 0.000090394970838
10 0.0
11 0.000084126781812
12 -0.000030349612103
13 0.55144990708577
14 0.47168759769738
15 0.005482075469500
16 -0.000471732152523
17 0.0
18 0.0
19 0.001801400151197
20 0.0
21 0.0
22 -0.000645753001908
23 0.0
24 0.0
25 0.000087992737947
26 0.000134389124535
27 -0.000112453530571
28 -0.000021935593963
29 0.0
30 0.0
31 0.0
 Sym=      2.1
 Ene=      -1.3428
 Spin= Alpha
 Occup=    2.000000
1 0.093957541334291
2 0.081199388713522
3 -0.002438605075198
4 0.0
5 -0.023479921265814
6 -0.015037492591526
7 0.093957541334291
8 0.081199388713522
9 -0.002438605075198
10 0.0
11 0.023479921265814
12 -0.015037492591526
13 -0.11341342012247
14 -0.18949979535919
15 0.53970501679125
16 0.37586814485364
17 0.0
18 0.0
19 0.037299385478403
20 0.0
21 0.0
22 0.062547413866213
23 0.0
24 0.0
25 0.020861307094287
26 -0.008028839572739
27 0.004808937057920
28 0.003219902514819
29 0.0
30 0.0
31 0.0
 Sym=      1.3
 Ene=      -0.7030
 Spin= Alpha
 Occup=    2.000000
1 0.14844984594090
2 0.21337751760932
3 0.058996907245234
4 0.0
5 -0.018267513349271
6 -0.026657201614465
7 -0.14844984594090
8 -0.21337751760932
9 -0.058996907245234
10 0.0
11 -0.018267513349271
12 0.026657201614465
13 0.0
14 0.0
15 0.0
16 0.0
17 0.0
18 0.22677574380947
19 0.0
20 0.0
21 0.34847576331992
22 0.0
23 0.0
24 0.21790848213943
25 0.0
26 0.0
27 0.0
28 0.0
29 0.0
30 0.0
31 0.029041277921644
 Sym=      3.1
 Ene=      -0.5755
 Spin= Alpha
 Occup=    2.000000
1 0.089078484073273
2 0.15289785507046
3 0.028931192435523
4 0.0
5 -0.030726617072045
6 0.007802175817529
7 0.089078484073273
8 0.15289785507046
9 0.028931192435523
10 0.0
11 0.030726617072045
12 0.007802175817529
13 0.038736487751931
14 0.065834001632203
15 -0.19904236493400
16 -0.33936290014871
17 0.0
18 0.0
19 0.25333183871957
20 0.0
21 0.0
22 0.37473729841878
23 0.0
24 0.0
25 0.33251280458711
26 -0.012750795614411
27 -0.004345218351594
28 0.017096013966005
29 0.0
30 0.0
31 0.0
 Sym=      1.2
 Ene=      -0.5004
 Spin= Alpha
 Occup=    2.000000
1 0.0
2 0.0
3 0.0
4 0.031022613009311
5 0.0
6 0.0
7 0.0
8 0.0
9 0.0
10 0.031022613009311
11 0.0
12 0.0
13 0.0
14 0.0
15 0.0
16 0.0
17 0.29219850324571
18 0.0
19 0.0
20 0.43722194631005
21 0.0
22 0.0
23 0.46610496239537
24 0.0
25 0.0
26 0.0
27 0.0
28 0.0
29 0.0
30 0.017166488954003
31 0.0
 Sym=      4.1
 Ene=       0.1498
 Spin= Alpha
 Occup=    0.000000
1 0.035257537455303
2 -0.070096623054568
3 0.83800132023075
4 0.0
5 0.006160679861530
6 -0.002965897631357
7 0.035257537455303
8 -0.070096623054568
9 0.83800132023075
10 0.0
11 -0.006160679861530
12 -0.002965897631357
13 0.033243708541007
14 0.054187715804065
15 -0.10262843731492
16 -0.83561882281162
17 0.0
18 0.0
19 -0.075821393175833
20 0.0
21 0.0
22 -0.11883891886556
23 0.0
24 0.0
25 -0.21005306008970
26 0.004934271591748
27 0.000024440850536
28 -0.004958712442284
29 0.0
30 0.0
31 0.0
 Sym=      2.3
 Ene=       0.2173
 Spin= Alpha
 Occup=    0.000000
1 0.026697467692051
2 -0.12344059657639
3 1.57124675323918
4 0.0
5 0.008339868839346
6 0.008491109873291
7 -0.026697467692051
8 0.12344059657639
9 -1.57124675323918
10 0.0
11 0.008339868839346
12 -0.008491109873291
13 0.0
14 0.0
15 0.0
16 0.0
17 0.0
18 -0.12337352617902
19 0.0
20 0.0
21 -0.13233289682419
22 0.0
23 0.0
24 -0.50236942773657
25 0.0
26 0.0
27 0.0
28 0.0
29 0.0
30 0.0
31 -0.004809581137121
 Sym=      3.3
 Ene=       0.5636
 Spin= Alpha
 Occup=    0.000000
1 0.084007289227510
2 1.43205724854126
3 -0.75889558018998
4 0.0
5 -0.021122899142187
6 0.003765096797229
7 -0.084007289227510
8 -1.43205724854126
9 0.75889558018998
10 0.0
11 -0.021122899142187
12 -0.003765096797229
13 0.0
14 0.0
15 0.0
16 0.0
17 0.0
18 -0.12116625344889
19 0.0
20 0.0
21 -0.18270351971551
22 0.0
23 0.0
24 -1.08389792478169
25 0.0
26 0.0
27 0.0
28 0.0
29 0.0
30 0.0
31 0.014673955226079
 Sym=      5.1
 Ene=       0.6187
 Spin= Alpha
 Occup=    0.000000
1 0.062161385967832
2 1.81721645846828
3 -0.62205416262785
4 0.0
5 -0.031542368458147
6 -0.038207352159751
7 0.062161385967832
8 1.81721645846828
9 -0.62205416262785
10 0.0
11 0.031542368458147
12 -0.038207352159751
13 0.033732534553993
14 0.059127049307703
15 -0.13682240343639
16 -1.37561153748249
17 0.0
18 0.0
19 -0.10359718123826
20 0.0
21 0.0
22 -0.19460793199643
23 0.0
24 0.0
25 -1.07747907844536
26 -0.002823442965796
27 0.013557870394942
28 -0.010734427429147
29 0.0
30 0.0
31 0.0
 Sym=      6.1
 Ene=       0.9991
 Spin= Alpha
 Occup=    0.000000
1 -0.032881247176449
2 -0.60909993774794
3 -0.099045997681783
4 0.0
5 0.14870022555321
6 0.11017995975164
7 -0.032881247176449
8 -0.60909993774794
9 -0.099045997681783
10 0.0
11 -0.14870022555321
12 0.11017995975164
13 -0.015028497099956
14 -0.027994268337073
15 0.060216673391943
16 0.94335059672572
17 0.0
18 0.0
19 -0.23302622168066
20 0.0
21 0.0
22 -0.73363875580988
23 0.0
24 0.0
25 1.59871347591774
26 -0.012035836539285
27 0.015225867067738
28 -0.003190030528453
29 0.0
30 0.0
31 0.0
 Sym=      2.2
 Ene=       1.0033
 Spin= Alpha
 Occup=    0.000000
1 0.0
2 0.0
3 0.0
4 -0.020205318020647
5 0.0
6 0.0
7 0.0
8 0.0
9 0.0
10 -0.020205318020647
11 0.0
12 0.0
13 0.0
14 0.0
15 0.0
16 0.0
17 -0.23996031330944
18 0.0
19 0.0
20 -0.83673468503745
21 0.0
22 0.0
23 1.15095419502148
24 0.0
25 0.0
26 0.0
27 0.0
28 0.0
29 0.0
30 -0.008231913804444
31 0.0
 Sym=      4.3
 Ene=       1.1104
 Spin= Alpha
 Occup=    0.000000
1 -0.014307408860308
2 -0.33858717253581
3 -0.78346798379567
4 0.0
5 0.16699484672336
6 0.14769517798213
7 0.014307408860308
8 0.33858717253581
9 0.78346798379567
10 0.0
11 0.16699484672336
12 -0.14769517798213
13 0.0
14 0.0
15 0.0
16 0.0
17 0.0
18 -0.24016572926455
19 0.0
20 0.0
21 -0.71666089247093
22 0.0
23 0.0
24 1.78165624047584
25 0.0
26 0.0
27 0.0
28 0.0
29 0.0
30 0.0
31 0.030125483151743
 Sym=      7.1
 Ene=       1.3154
 Spin= Alpha
 Occup=    0.000000
1 0.012944448057248
2 -0.88204195113336
3 -0.33679148632564
4 0.0
5 0.15043938502194
6 0.37645418590338
7 0.012944448057248
8 -0.88204195113336
9 -0.33679148632564
10 0.0
11 -0.15043938502194
12 0.37645418590338
13 0.099321709758792
14 0.20434489374648
15 -1.50207403603999
16 3.12970306141892
17 0.0
18 0.0
19 -0.029117295905720
20 0.0
21 0.0
22 0.15858943084476
23 0.0
24 0.0
25 0.61537177639301
26 -0.029744926743810
27 -0.003659365391008
28 0.033404292134818
29 0.0
30 0.0
31 0.0
 Sym=      8.1
 Ene=       1.4614
 Spin= Alpha
 Occup=    0.000000
1 -0.081633929097966
2 1.16926834654982
3 -0.018914656287084
4 0.0
5 -0.60773155273309
6 0.39223157719773
7 -0.081633929097966
8 1.16926834654982
9 -0.018914656287084
10 0.0
11 0.60773155273309
12 0.39223157719773
13 -0.035073532051009
14 -0.072956624389168
15 0.61761793742519
16 -2.04679465553211
17 0.0
18 0.0
19 -0.011678144377098
20 0.0
21 0.0
22 -0.10818056292054
23 0.0
24 0.0
25 -1.24086801824650
26 -0.004002695665352
27 -0.10656487363875
28 0.11056756930410
29 0.0
30 0.0
31 0.0
 Sym=      1.4
 Ene=       1.5210
 Spin= Alpha
 Occup=    0.000000
1 0.0
2 0.0
3 0.0
4 0.69051158184967
5 0.0
6 0.0
7 0.0
8 0.0
9 0.0
10 -0.69051158184967
11 0.0
12 0.0
13 0.0
14 0.0
15 0.0
16 0.0
17 0.0
18 0.0
19 0.0
20 0.0
21 0.0
22 0.0
23 0.0
24 0.0
25 0.0
26 0.0
27 0.0
28 0.0
29 0.12473728005054
30 0.0
31 0.0
 Sym=      3.2
 Ene=       1.7070
 Spin= Alpha
 Occup=    0.000000
1 0.0
2 0.0
3 0.0
4 0.76547286938122
5 0.0
6 0.0
7 0.0
8 0.0
9 0.0
10 0.76547286938122
11 0.0
12 0.0
13 0.0
14 0.0
15 0.0
16 0.0
17 -0.049182585480631
18 0.0
19 0.0
20 -0.052700454697166
21 0.0
22 0.0
23 -0.55418315909653
24 0.0
25 0.0
26 0.0
27 0.0
28 0.0
29 0.0
30 0.14641477301675
31 0.0
 Sym=      5.3
 Ene=       1.9351
 Spin= Alpha
 Occup=    0.000000
1 -0.19167777191801
2 0.74032364723331
3 -0.16403553827146
4 0.0
5 0.48511360122237
6 -0.65086911004259
7 0.19167777191801
8 -0.74032364723331
9 0.16403553827146
10 0.0
11 0.48511360122237
12 0.65086911004259
13 0.0
14 0.0
15 0.0
16 0.0
17 0.0
18 0.010906979270994
19 0.0
20 0.0
21 0.011918722881153
22 0.0
23 0.0
24 -0.88566836774537
25 0.0
26 0.0
27 0.0
28 0.0
29 0.0
30 0.0
31 -0.074707790664756
 Sym=      6.3
 Ene=       2.2402
 Spin= Alpha
 Occup=    0.000000
1 -0.67539623253539
2 0.67418556303929
3 -0.53488113503592
4 0.0
5 0.29293386850957
6 0.48655571433115
7 0.67539623253539
8 -0.67418556303929
9 0.53488113503592
10 0.0
11 0.29293386850957
12 -0.48655571433115
13 0.0
14 0.0
15 0.0
16 0.0
17 0.0
18 0.17034425542901
19 0.0
20 0.0
21 0.48139130044971
22 0.0
23 0.0
24 -0.002250817014978
25 0.0
26 0.0
27 0.0
28 0.0
29 0.0
30 0.0
31 -0.23418063878771
 Sym=      9.1
 Ene=       2.3924
 Spin= Alpha
 Occup=    0.000000
1 0.88757545677300
2 -1.09468048659979
3 0.41188442616755
4 0.0
5 -0.28841096222606
6 -0.13925734116999
7 0.88757545677300
8 -1.09468048659979
9 0.41188442616755
10 0.0
11 0.28841096222606
12 -0.13925734116999
13 0.029966368628862
14 0.055988990730090
15 -0.23955958537750
16 0.13912647668605
17 0.0
18 0.0
19 -0.16693209736658
20 0.0
21 0.0
22 -0.24287639392302
23 0.0
24 0.0
25 0.23513751672182
26 -0.28432742404583
27 0.19505237850086
28 0.089275045544966
29 0.0
30 0.0
31 0.0
 Sym=     10.1
 Ene=       2.5952
 Spin= Alpha
 Occup=    0.000000
1 0.55670091007738
2 -1.98178089072071
3 0.26504282147654
4 0.0
5 0.88347817869644
6 0.68229236471936
7 0.55670091007738
8 -1.98178089072071
9 0.26504282147654
10 0.0
11 -0.88347817869644
12 0.68229236471936
13 -0.055541664990285
14 -0.12970728603354
15 0.90474180718209
16 1.78637760628754
17 0.0
18 0.0
19 0.023018267565584
20 0.0
21 0.0
22 0.68787280092050
23 0.0
24 0.0
25 0.75508783609432
26 0.014984776991213
27 -0.000152886339067
28 -0.014831890652146
29 0.0
30 0.0
31 0.0
 Sym=      7.3
 Ene=       2.7855
 Spin= Alpha
 Occup=    0.000000
1 -0.78982742054782
2 2.08291322129063
3 -0.52802692944877
4 0.0
5 -0.89941840633781
6 -0.63557936402986
7 0.78982742054782
8 -2.08291322129063
9 0.52802692944877
10 0.0
11 -0.89941840633781
12 0.63557936402986
13 0.0
14 0.0
15 0.0
16 0.0
17 0.0
18 -0.011854904712631
19 0.0
20 0.0
21 -0.88205437575225
22 0.0
23 0.0
24 -0.65505344008273
25 0.0
26 0.0
27 0.0
28 0.0
29 0.0
30 0.0
31 -0.23180352462224
 Sym=      4.2
 Ene=       3.5044
 Spin= Alpha
 Occup=    0.000000
1 0.0
2 0.0
3 0.0
4 -0.36080588506258
5 0.0
6 0.0
7 0.0
8 0.0
9 0.0
10 -0.36080588506258
11 0.0
12 0.0
13 0.0
14 0.0
15 0.0
16 0.0
17 0.019775670156405
18 0.0
19 0.0
20 -0.014203152042111
21 0.0
22 0.0
23 0.26954300719298
24 0.0
25 0.0
26 0.0
27 0.0
28 0.0
29 0.0
30 1.03589488685264
31 0.0
 Sym=      2.4
 Ene=       3.5451
 Spin= Alpha
 Occup=    0.000000
1 0.0
2 0.0
3 0.0
4 -0.33787199079503
5 0.0
6 0.0
7 0.0
8 0.0
9 0.0
10 0.33787199079503
11 0.0
12 0.0
13 0.0
14 0.0
15 0.0
16 0.0
17 0.0
18 0.0
19 0.0
20 0.0
21 0.0
22 0.0
23 0.0
24 0.0
25 0.0
26 0.0
27 0.0
28 0.0
29 1.05225811921875
30 0.0
31 0.0
 Sym=     11.1
 Ene=       3.7221
 Spin= Alpha
 Occup=    0.000000
1 -0.016770947998226
2 -0.41114535244080
3 0.025981419652787
4 0.0
5 0.35142999992858
6 -0.26287340675504
7 -0.016770947998226
8 -0.41114535244080
9 0.025981419652787
10 0.0
11 -0.35142999992858
12 -0.26287340675504
13 0.000335574413788
14 0.001148692035373
15 -0.065642502914551
16 0.61324405999933
17 0.0
18 0.0
19 0.033321733980933
20 0.0
21 0.0
22 0.014263446730409
23 0.0
24 0.0
25 0.56283416578115
26 -0.35352640570079
27 -0.71236017166992
28 1.06588657737071
29 0.0
30 0.0
31 0.0
 Sym=     12.1
 Ene=       4.0000
 Spin= Alpha
 Occup=    0.000000
1 0.31601660768034
2 1.09070047081064
3 0.046124985715576
4 0.0
5 -0.57395210377672
6 -0.46588189229513
7 0.31601660768034
8 1.09070047081064
9 0.046124985715576
10 0.0
11 0.57395210377672
12 -0.46588189229513
13 0.022231282232497
14 0.044166851596006
15 -0.11973940675473
16 -2.04871849296889
17 0.0
18 0.0
19 -0.30860359072783
20 0.0
21 0.0
22 -0.12882018896273
23 0.0
24 0.0
25 -0.98469959164881
26 1.04879125491743
27 -0.85932755508793
28 -0.18946369982950
29 0.0
30 0.0
31 0.0
 Sym=      8.3
 Ene=       4.2732
 Spin= Alpha
 Occup=    0.000000
1 -0.40804763200432
2 -0.50070365066143
3 -0.23117767168251
4 0.0
5 0.46131452280697
6 0.36759695893624
7 0.40804763200432
8 0.50070365066143
9 0.23117767168251
10 0.0
11 0.46131452280697
12 -0.36759695893624
13 0.0
14 0.0
15 0.0
16 0.0
17 0.0
18 0.45232061949993
19 0.0
20 0.0
21 -0.035969099348705
22 0.0
23 0.0
24 0.91444178843112
25 0.0
26 0.0
27 0.0
28 0.0
29 0.0
30 0.0
31 1.15614068529571
 Sym=      5.2
 Ene=       5.3260
 Spin= Alpha
 Occup=    0.000000
1 0.0
2 0.0
3 0.0
4 0.058801763900013
5 0.0
6 0.0
7 0.0
8 0.0
9 0.0
10 0.058801763900013
11 0.0
12 0.0
13 0.0
14 0.0
15 0.0
16 0.0
17 1.27046724838115
18 0.0
19 0.0
20 -1.37393174919870
21 0.0
22 0.0
23 0.48122768781059
24 0.0
25 0.0
26 0.0
27 0.0
28 0.0
29 0.0
30 -0.028529717721549
31 0.0
 Sym=     13.1
 Ene=       5.7612
 Spin= Alpha
 Occup=    0.000000
1 0.28783871288012
2 0.49365888298429
3 0.013449347599556
4 0.0
5 -0.46289749289675
6 -0.27848638048973
7 0.28783871288012
8 0.49365888298429
9 0.013449347599556
10 0.0
11 0.46289749289675
12 -0.27848638048973
13 0.022586448370458
14 0.042376840174949
15 -0.22514928504944
16 -1.01441248195790
17 0.0
18 0.0
19 1.26257757831560
20 0.0
21 0.0
22 -1.72371351383067
23 0.0
24 0.0
25 0.085377497107483
26 0.36448731948234
27 -0.25156428954186
28 -0.11292302994048
29 0.0
30 0.0
31 0.0
 Sym=      9.3
 Ene=       6.1805
 Spin= Alpha
 Occup=    0.000000
1 -0.34631684427213
2 -0.48924254490951
3 0.15148612903825
4 0.0
5 0.51081105085419
6 0.46624170475434
7 0.34631684427213
8 0.48924254490951
9 -0.15148612903825
10 0.0
11 0.51081105085419
12 -0.46624170475434
13 0.0
14 0.0
15 0.0
16 0.0
17 0.0
18 -1.25430990517863
19 0.0
20 0.0
21 1.98719959389513
22 0.0
23 0.0
24 -0.15824351576142
25 0.0
26 0.0
27 0.0
28 0.0
29 0.0
30 0.0
31 0.65242938402930
 Sym=     14.1
 Ene=      51.5502
 Spin= Alpha
 Occup=    0.000000
1 0.005557253659199
2 0.065523568573396
3 -0.030465541032668
4 0.0
5 -0.057667979083622
6 -0.045591351807502
7 0.005557253659199
8 0.065523568573396
9 -0.030465541032668
10 0.0
11 0.057667979083622
12 -0.045591351807502
13 -2.24715697544030
14 2.33609297686784
15 -0.26644424877668
16 0.074157815437407
17 0.0
18 0.0
19 0.018432586206444
20 0.0
21 0.0
22 -0.071533979753411
23 0.0
24 0.0
25 -0.009427645448203
26 0.023065086661164
27 -0.018969955025033
28 -0.004095131636131
29 0.0
30 0.0
31 0.0
 [FREQ]
      0.00
      0.00
      0.00
      0.00
      0.00
      0.00
   1688.96
   3904.22
   3997.81
 [FR-COORD]
H          0.0000000000        1.4131093526        1.0029577923
O          0.0000000000        0.0000000000       -0.1263909502
H          0.0000000000       -1.4131093526        1.0029577923
 [FR-NORM-COORD]
 Vibration                    1
          0.00000000          0.18518963         -0.19282237
          0.22238735          0.03862919         -0.00943709
          0.21495683          0.18518963          0.17394819
 Vibration                    2
          0.99611031         -0.00000000          0.00000000
         -0.00000000         -0.00000000          0.00000000
          0.00000000         -0.00000000         -0.00000000
 Vibration                    3
         -0.00000000         -0.03796816          0.03987320
         -0.04985548         -0.00796505          0.00233150
          0.97261609         -0.03796816         -0.03521020
 Vibration                    4
          0.00000000         -0.41374898          0.44526564
          0.10256069         -0.08894539          0.03885178
          0.00653329         -0.41374898         -0.36756209
 Vibration                    5
         -0.00000000          0.08685845          0.05801347
         -0.00765124         -0.04507501          0.22309658
         -0.00211462          0.08685845          0.38817970
 Vibration                    6
         -0.00000000         -0.02277703          0.36288118
         -0.00097476          0.21576999          0.06439675
         -0.00032851         -0.02277703         -0.23408768
 Vibration                    7
         -0.00000000         -0.41915185          0.53344987
          0.00000000         -0.00000000         -0.06722440
          0.00000000          0.41915185          0.53344987
 Vibration                    8
         -0.00000000          0.56606502          0.39500144
         -0.00000000         -0.00000000         -0.04977738
          0.00000000         -0.56606502          0.39500144
 Vibration                    9
          0.00000000          0.53021665          0.42374605
          0.00000000         -0.06681696          0.00000000
         -0.00000000          0.53021665         -0.42374605
