[Molden Format]
[Molpro variables]
_NUMVAR=  1041.000000000000    
_AVOGAD= 0.6022140760000000E+24
_BOLTZ= 0.1380649000000000E-22
_CLIGHTSI=  299792458.0000000    
_JOULE= 0.4359744722207100E-17
_JPCAL=  4.184000000000000    
_PLANCK= 0.6626070150000000E-33
_BOHR= 0.5291772109030000E-10
_ECHARG= 0.1602176634000000E-18
_ENULL= 0.8854187812800001E-11
_MU= 0.1660539066600000E-26
_EMASS= 0.9109383701500001E-30
_AMU2AU=  1822.888486217313    
_CLIGHT=  29979245800.00000    
_EV= 0.3674932217565494E-01
_KJOULE= 0.3808798847133432E-03
_KJOULE/MOL= 0.3808798847133432E-03
_CM= 0.4556335252912009E-05
_CM-1= 0.4556335252912009E-05
_DEB2SI= 0.3335640951981520E-29
_KCAL= 0.1593601437640628E-02
_KCAL/MOL= 0.1593601437640628E-02
_KELVIN= 0.3166811563455608E-05
_HERTZ= 0.1519829846057038E-15
_HZ= 0.1519829846057038E-15
_TOA= 0.5291772109030000    
_TOANG= 0.5291772109030000    
_TORAD= 0.1745329251994330E-01
_TOCM=  219474.6313631965    
_TODEBYE=  2.541746473194078    
_TOE= 0.4803204712570263E-09
_TOEV=  27.21138624598803    
_TOHERTZ=  6579683920501656.    
_TOHZ=  6579683920501656.    
_TOK=  315775.0248040668    
_TOKCAL=  627.5094740630558    
_TOKELVIN=  315775.0248040668    
_TOKJ=  2625.499639479825    
_TOKJOULE=  2625.499639479825    
_TOKG= 0.1660539066600000E-26
_ANG=  1.889726124625770    
_ANGSTROM=  1.889726124625770    
_RPAREF=  0.000000000000000    
_RPADISS=  0.000000000000000    
_IGNORE_UNDEF=  2.000000000000000    
_STRICTCHECK=  0.000000000000000    
!SEWARD=  0.000000000000000    
!MULTI=  0.000000000000000    
!DFMULTI=  0.000000000000000    
_SEW_ONEEL=  0.000000000000000    
_CPPDONE=FALSE
_DKROLL_DONE=  0.000000000000000    
_FNUC_DONE=  0.000000000000000    
_FOCKDONE=TRUE
_GRADONE=FALSE
_HESSDONE=TRUE
_INTDONE=TRUE
_SCFDONE=TRUE
_MODUL_BLOCK=FALSE
_MODUL_SLATER=FALSE
_MODUL_MRCC=FALSE
_MODUL_NBO6=FALSE
_MODUL_NECI=FALSE
_MODUL_AIMS=TRUE
_MODUL_HDF5=FALSE
_MODUL_GECCO=FALSE
_ISWINDOWS=FALSE
_MRCC_EXEC=
_FITC_AO_SAVED=FALSE
_FITC_MO_SAVED=FALSE
_SHARED_FS=TRUE
_LSTYP=SEWARD
_INTYP=INTS
_GEOMTYP=ZMAT
_GRADTYP=ALASKA
_DIRECT=FALSE
_DKHO= -1.000000000000000    
_FNUC=  0.000000000000000    
_SYNCM=  0.000000000000000    
_BASIS=6-311G(D,P)
_ZCENTRE=MASS
_ZORIENT=  1.000000000000000    
_NELEC=  22.00000000000000    
!SPIN=  0.000000000000000    
_OPTCONV= 0.3659224646215953E-07
_QSDSTEP=  0.000000000000000    
_QSDIRC=  0.000000000000000    
_PROGRAM=FREQ
_CPUSTEP=  15.41000000000000    
_SYSSTEP= 0.8999999999999986E-01
_WALLSTEP=  7.990000000000000    
!DFSCF=  0.000000000000000    
!SCSGRD=  0.000000000000000    
_NCEN=  3.000000000000000    
_CPUTOT=  158.3600000000000    
_DFTEXFAC=  1.000000000000000    
_DMX=  0.000000000000000    
_DMY=  0.000000000000000    
_DMZ=-0.2850344653104442    
_DMX_SCF=  0.000000000000000    
_DMY_SCF=  0.000000000000000    
_DMZ_SCF=-0.2850344653104442    
_FREQUENCIES= 0.2444728022773235E-04
_HOMO=  2.300000000000000    
_EHOMO=-0.4924457616347667    
_LUMO=  3.200000000000000    
_ELUMO= 0.1780136522787788    
_ENERGY= -183.7281052316731    
_ENERGY_METHOD=HF
_ENERGY_BASIS=6-311G(D,P)
_GEOMETRY_METHOD=HF
_GEOMETRY_BASIS=6-311G(D,P)
_ENUC=  62.38535573931003    
_GRADENERG= -183.7281052316556    
_GRADEXFAC=  9999.000000000000    
_GRADMETHOD=  1.000000000000000    
_NMRMETHOD=  0.000000000000000    
_NMRMAGNET=  0.000000000000000    
_VIRIAL= 0.6972589295446428E-07
!GRID_FREEZE= -1.000000000000000    
!NEESE_INDEX=  0.000000000000000    
_ITERATIONS=  2.000000000000000    
_LASTNELEC=  22.00000000000000    
_LASTSPIN=  0.000000000000000    
_LASTSYM=  1.000000000000000    
_MPP_PROG=  1.000000000000000    
_MSNSTATES=  0.000000000000000    
_RS2PHASE=  0.000000000000000    
_IPROC_MPP=  0.000000000000000    
_IPROC_MPPX=  0.000000000000000    
_NPROC_MPP=  6.000000000000000    
_NPROC_MPPX=  6.000000000000000    
_NPROC_SMP=  6.000000000000000    
_NUMSTEP=  0.000000000000000    
_OPTCONVMX= 0.2603715643090254E-07
_OPTCONVRMS= 0.2112654324231144E-07
_OPTGRAD= 0.9779741864340349E-06
_OPTGRADMX= 0.9602091043343975E-06
_OPTGRADRMS= 0.2444935466085087E-06
_OPTSTEP= -100.0000000000000    
_ORBITAL=  2100.200000000000    
_PI=  3.141592653589793    
_SEIG_MIN= 0.1331200113324798E-02
_SEWPROP=TRUE
_STATUS=  1.000000000000000    
_SYSTOT=  2.450000000000000    
_VERSION=  2022003.000000000    
_WALLTOT=  86.28000000000000    
_ZPE= 0.1230651869691160E-01
_DATE=21-Aug-25
_LASTORB=0
_OUTPUT=/home/lme/overlap_integral_gaussian/molpro_files/n2o/n2o.out
_PGROUP=C2v
_TIME=21:22:38
_LIBMOL=/usr/local/molpro/molpro_2022.3.0_sockets/lib/
_VIGRDC=  0.000000000000000    
!VIBCNT=  0.000000000000000    
!RGHFCNT=  0.000000000000000    
!SURFREC=  0.000000000000000    
!XSURFREC=  0.000000000000000    
!XPOLYREC=  0.000000000000000    
!ROTREC=  0.000000000000000    
!POLYREC=  0.000000000000000    
!DIPREC=  0.000000000000000    
!DIP4DREC=  0.000000000000000    
!DIPROT=  0.000000000000000    
!DIP4DROT=  0.000000000000000    
!PTREC=  0.000000000000000    
!PT4DREC=  0.000000000000000    
!VSCFREC=  0.000000000000000    
!VCIREC=  0.000000000000000    
!PVCIREC=  0.000000000000000    
!VMP2REC=  0.000000000000000    
!VMCSCFREC=  0.000000000000000    
!VMRCIREC=  0.000000000000000    
!VIBSTATEREC=  0.000000000000000    
!VIBSTATECNT=  0.000000000000000    
!VIBINFO=  0.000000000000000    
!GAREC=  0.000000000000000    
!SCFORB=  21002.00000000000    
!DEFCORE=  3.000000000000000    
!SCORE=  0.000000000000000    
!NEWMOL=  0.000000000000000    
!NEWSYM=  0.000000000000000    
_SLFILES=slscratch
_NGSSTO=  9.000000000000000    
_SIN=SIN
_COS=COS
_TAN=TAN
_ACOS=ACOS
_ASIN=ASIN
_ATAN=ATAN
_COSH=COSH
_SINH=SINH
_TANH=TANH
_ABS=ABS
_MOD=MOD
_ERF=ERF
_REFC=REFC
_ERFC=ERFC
_HYPOT=HYPOT
_J0=J0
_J1=J1
_JN=JN
_GAMMA=GAMMA
_LGAMMA=LGAMMA
_Y0=Y0
_Y1=Y1
_YN=YN
_EXP=EXP
_LOG=LOG
_LOG10=LOG10
_SQRT=SQRT
_INT=INT
_NINT=NINT
_MAX=MAX
_MIN=MIN
_COSMO=  0.000000000000000    
_COSMOIT=  0.000000000000000    
_COSMOES=  0.000000000000000    
_COSMOEDS=  0.000000000000000    
_COSMOEC=  0.000000000000000    
_COSMOEDCORR=  0.000000000000000    
_FEPSI=  1.000000000000000    
_SL_IsMM=  0.000000000000000    
_SL_NSYM=  4.000000000000000    
_SL_System_BitSw=  0.000000000000000    
_SL_Unique_atoms=  0.000000000000000    
_SL_GRAD=  0.000000000000000    
_SL_MAXUPD_Hess=  5.000000000000000    
_SL_N_PRINT_COD=  5.000000000000000    
_SL_PRINT_CODES=  0.000000000000000    
_SL_BasType=  0.000000000000000    
_SL_Energy_Pred=  0.000000000000000    
_SL_New_Coords=  0.000000000000000    
_SL_Total_Nuclea=  0.000000000000000    
_SL_Highest_Mltp=  0.000000000000000    
_SL_Ref_Geom=  0.000000000000000    
_SL_Symmetry_ope=  1.000000000000000    
_SL_agrad=  0.000000000000000    
_SL_GrdMax=  0.000000000000000    
_SL_GrdNorm=  0.000000000000000    
_SL_GrdRMS=  0.000000000000000    
_SL_Hss_Q=  0.000000000000000    
_SL_Hss_X=  0.000000000000000    
_SL_BMxOld=  0.000000000000000    
_SL_KtB=  0.000000000000000    
_SL_TROld=  0.000000000000000    
_SL_No_of_Intern=  0.000000000000000    
_SL_Hess=  0.000000000000000    
_SL_K=  0.000000000000000    
!LATTICE= -1.000000000000000    
!NEWLATTICE=  0.000000000000000    
!LATGRAD_VAR=FALSE
!SEW_LATTICE=  1.000000000000000    
!AIC_ONEEL=  0.000000000000000    
!LOCAL=  0.000000000000000    
!SAVEDOM= -1.000000000000000    
!RESTDOM= -1.000000000000000    
!SAVEDOM_HF= -1.000000000000000    
!RESTDOM_HF= -1.000000000000000    
!HESSREC=  5300.200000000000    
!FREQREC=  5400.200000000000    
!NMODREC=  5450.200000000000    
!GTASKS=  0.000000000000000    
!HTASKS=  0.000000000000000    
!SAVEDOM_EOM= -1.000000000000000    
!RESTDOM_EOM= -1.000000000000000    
!GRADSTATE= -1.000000000000000    
!DEBUG=  0.000000000000000    
!CFIT_CPHF=  0.000000000000000    
!RDOMAUX_CPHF=  0.000000000000000    
!THRAO_CPHF= 0.1000000000000000E-11
!THRMO_CPHF= 0.1000000000000000E-11
!THROV_CPHF= 0.1000000000000000E-11
!THRSW_CPHF= 0.1000000000000000E-11
!THRPROD_CPHF= 0.1000000000000000E-11
!THRAOPR_CPHF= 0.1000000000000000E-11
!CFIT_SCFGRD=  0.000000000000000    
!RDOMAUX_SCFGRD=  0.000000000000000    
!THRAO_SCFGRD= 0.1000000000000000E-11
!THRMO_SCFGRD= 0.1000000000000000E-11
!THROV_SCFGRD= 0.1000000000000000E-11
!THRSW_SCFGRD= 0.1000000000000000E-11
!THRPROD_SCFGRD= 0.1000000000000000E-11
!THRAOPR_SCFGRD= 0.1000000000000000E-11
!LOCFIT_SCF=  0.000000000000000    
!LOCFIT_MP2=  0.000000000000000    
_RIDOM=  0.000000000000000    
!CC2_METHOD=  0.000000000000000    
_BASIS2006=FALSE
_SVDDEL= -1.000000000000000    
_SVDDELA= -1.000000000000000    
_SVDDELP= -1.000000000000000    
_SVDDELF= -1.000000000000000    
_SVDDELS= -1.000000000000000    
_SVDDEL_ABS= -1.000000000000000    
_SVDDELA_ABS= -1.000000000000000    
_SVDDELP_ABS= -1.000000000000000    
_SVDDELF_ABS= -1.000000000000000    
_SVDDELS_ABS= -1.000000000000000    
_MAXBASIS=  0.000000000000000    
!OPT_CONICAL=  0.000000000000000    
!CLEARSP_JGRID=  0.000000000000000    
_GRDHYBR=  0.000000000000000    
_STATEGRAD=  1.000000000000000    
_4EXT_NDISKS=  1.000000000000000    
!EMBEDFLAG=  1.000000000000000    
!EMBED=FALSE
!EMBED_F12=FALSE
!EMBEDNUC=  0.000000000000000    
_EMBEDENERGY=  0.000000000000000    
!EMBED_DFC=FALSE
!NUM_VOIDS=  0.000000000000000    
_IBODY=  0.000000000000000    
_EMBE_CORR=  0.000000000000000    
!EMBED_PROJ=FALSE
!EMB_PROJ_ZMU=  1000000.000000000    
!CORRECTION_HF=  0.000000000000000    
!EMBED_AORB=  0.000000000000000    
!EMBED_NACORR=  0.000000000000000    
!EMBED_MP2=FALSE
!EMBED_TRUNC_PERTURBATION=FALSE
!EMBED_FROZEN=  0.000000000000000    
!EMBED_ACTIVE=  0.000000000000000    
_CHANGE_BASIS=FALSE
_RESTORE_BASIS=FALSE
_FIX_EMBED_GUESS=FALSE
_EMBED_SCF=FALSE
_HUZINAGA_T=FALSE
_HUZINAGA_F=FALSE
_HUZINAGA=FALSE
_HUZINAGA_CORRECT=FALSE
!FASTLATGRAD=  1.000000000000000    
!FASTVLAMBDA= -1.000000000000000    
!IFORCE= -1.000000000000000    
!USESYM= -1.000000000000000    
_SINDEX=  0.000000000000000    
_AVDOM_OSV=  0.000000000000000    
_AVDOM_PNO=  0.000000000000000    
_AVDOM_PAO=  0.000000000000000    
_AVDOM_LMO=  0.000000000000000    
_CC2OSV_FLAG=  0.000000000000000    
_EOMCCSD_CONV=FALSE
_TMADC2_FLAG=FALSE
_PROPADC2_FLAG=FALSE
_LEN_VirQ=  0.000000000000000    
_GRDCC2LR_FLAG=FALSE
_GRDADC2_FLAG=FALSE
_RO_VGLOBAL=  0.000000000000000    
_OPT=FALSE
_FREQ=FALSE
_HESS=FALSE
_CMRCC_callName=EMPTY
_CMRCC_callCount=  0.000000000000000    
_GECCO_CIROOT=  1.000000000000000    
_SYM_CATION=  3.000000000000000    
_MON_A=FALSE
_MON_B=FALSE
GX1= -0.000000000000000    
GY1= -0.000000000000000    
GZ1= -1.164950482441857    
GX2= -0.000000000000000    
GY2= -0.000000000000000    
GZ2=-0.7941814580901073E-01
GX3= -0.000000000000000    
GY3= -0.000000000000000    
GZ3=  1.089407880832145    
NX1=  0.000000000000000    
NY1=  0.000000000000000    
NZ1= -2.201437360565772    
NX2=  0.000000000000000    
NY2=  0.000000000000000    
NZ2=-0.1500785449046262    
OX3=  0.000000000000000    
OY3=  0.000000000000000    
OZ3=  2.058682532781702    
[Atoms] Angs
N     1    7         0.0000000000        0.0000000000       -1.1649504824
N     2    7         0.0000000000        0.0000000000       -0.0794181458
O     3    8         0.0000000000        0.0000000000        1.0894078808
[GTO]
   1 0
 s    6  1.00
  0.6293480000D+04  0.1969788147D-02
  0.9490440000D+03  0.1496128592D-01
  0.2187760000D+03  0.7350053084D-01
  0.6369160000D+02  0.2489367658D+00
  0.1882820000D+02  0.6024594331D+00
  0.2720230000D+01  0.2562017589D+00
 s    3  1.00
  0.3063310000D+02  0.1119060795D+00
  0.7026140000D+01  0.9216666549D+00
  0.2112050000D+01 -0.2569191826D-02
 s    1  1.00
  0.6840090000D+00  0.1000000000D+01
 s    1  1.00
  0.2008780000D+00  0.1000000000D+01
 p    3  1.00
  0.3063310000D+02  0.3831191864D-01
  0.7026140000D+01  0.2374031155D+00
  0.2112050000D+01  0.8175923978D+00
 p    1  1.00
  0.6840090000D+00  0.1000000000D+01
 p    1  1.00
  0.2008780000D+00  0.1000000000D+01
 d    1  1.00
  0.9130000000D+00  0.1000000000D+01
  
   2 0
 s    6  1.00
  0.6293480000D+04  0.1969788147D-02
  0.9490440000D+03  0.1496128592D-01
  0.2187760000D+03  0.7350053084D-01
  0.6369160000D+02  0.2489367658D+00
  0.1882820000D+02  0.6024594331D+00
  0.2720230000D+01  0.2562017589D+00
 s    3  1.00
  0.3063310000D+02  0.1119060795D+00
  0.7026140000D+01  0.9216666549D+00
  0.2112050000D+01 -0.2569191826D-02
 s    1  1.00
  0.6840090000D+00  0.1000000000D+01
 s    1  1.00
  0.2008780000D+00  0.1000000000D+01
 p    3  1.00
  0.3063310000D+02  0.3831191864D-01
  0.7026140000D+01  0.2374031155D+00
  0.2112050000D+01  0.8175923978D+00
 p    1  1.00
  0.6840090000D+00  0.1000000000D+01
 p    1  1.00
  0.2008780000D+00  0.1000000000D+01
 d    1  1.00
  0.9130000000D+00  0.1000000000D+01
  
   3 0
 s    6  1.00
  0.8588500000D+04  0.1895150083D-02
  0.1297230000D+04  0.1438590063D-01
  0.2992960000D+03  0.7073200310D-01
  0.8737710000D+02  0.2400010105D+00
  0.2567890000D+02  0.5947970261D+00
  0.3740040000D+01  0.2808020123D+00
 s    3  1.00
  0.4211750000D+02  0.1138890124D+00
  0.9628370000D+01  0.9208111006D+00
  0.2853320000D+01 -0.3274470358D-02
 s    1  1.00
  0.9056610000D+00  0.1000000000D+01
 s    1  1.00
  0.2556110000D+00  0.1000000000D+01
 p    3  1.00
  0.4211750000D+02  0.3651139738D-01
  0.9628370000D+01  0.2371529830D+00
  0.2853320000D+01  0.8197019412D+00
 p    1  1.00
  0.9056610000D+00  0.1000000000D+01
 p    1  1.00
  0.2556110000D+00  0.1000000000D+01
 d    1  1.00
  0.1292000000D+01  0.1000000000D+01


[MO]
 Sym=      1.1
 Ene=     -20.6427
 Spin= Alpha
 Occup=    2.000000
1 -0.000002974519568
2 0.000001284656830
3 -0.000029001108894
4 0.001689149891498
5 0.0
6 0.0
7 -0.000040832160149
8 0.0
9 0.0
10 0.000071287561509
11 0.0
12 0.0
13 0.000596721279495
14 0.000003138438279
15 0.000003138438279
16 -0.000006276876558
17 0.0
18 0.0
19 0.0
20 0.000031830433603
21 -0.000075816319599
22 0.000415182023000
23 -0.000325668074186
24 0.0
25 0.0
26 0.000088309731688
27 0.0
28 0.0
29 0.000401013730325
30 0.0
31 0.0
32 0.001880022066036
33 -0.000113217152616
34 -0.000113217152616
35 0.000226434305231
36 0.0
37 0.0
38 0.0
39 0.55149407282740
40 0.47170880175216
41 0.005410484699493
42 -0.001793643068436
43 0.0
44 0.0
45 -0.002457995675000
46 0.0
47 0.0
48 0.000974291492236
49 0.0
50 0.0
51 0.000324651733922
52 0.000096351163818
53 0.000096351163818
54 -0.000192702327637
55 0.0
56 0.0
57 0.0
 Sym=      2.1
 Ene=     -15.8359
 Spin= Alpha
 Occup=    2.000000
1 0.006350161147524
2 0.005332595224966
3 -0.000304380143739
4 0.000330463406226
5 0.0
6 0.0
7 0.000260616971012
8 0.0
9 0.0
10 -0.000511659467916
11 0.0
12 0.0
13 0.000181984597500
14 0.000094607209376
15 0.000094607209376
16 -0.000189214418753
17 0.0
18 0.0
19 0.0
20 0.55755466309802
21 0.46814254771669
22 0.005342797367382
23 0.000266476513257
24 0.0
25 0.0
26 0.000396657184875
27 0.0
28 0.0
29 -0.000925191783544
30 0.0
31 0.0
32 0.000633021514639
33 -0.000617550129950
34 -0.000617550129950
35 0.001235100259900
36 0.0
37 0.0
38 0.0
39 -0.000142847375444
40 -0.000156831608429
41 0.000141298750430
42 -0.000659088575946
43 0.0
44 0.0
45 -0.000201589317028
46 0.0
47 0.0
48 0.000042067232617
49 0.0
50 0.0
51 0.000191552412250
52 0.000016564347300
53 0.000016564347300
54 -0.000033128694600
55 0.0
56 0.0
57 0.0
 Sym=      3.1
 Ene=     -15.6852
 Spin= Alpha
 Occup=    2.000000
1 0.55766435540635
2 0.46835197565563
3 0.004257001916219
4 -0.001320704011963
5 0.0
6 0.0
7 0.002970101030238
8 0.0
9 0.0
10 -0.001080192233591
11 0.0
12 0.0
13 -0.000105621403728
14 -0.000159974456219
15 -0.000159974456219
16 0.000319948912437
17 0.0
18 0.0
19 0.0
20 -0.006665574111837
21 -0.005749082779409
22 0.000569729256028
23 0.000702396929070
24 0.0
25 0.0
26 -0.000309683304037
27 0.0
28 0.0
29 -0.000486840007653
30 0.0
31 0.0
32 -0.001102748637004
33 -0.000107091223974
34 -0.000107091223974
35 0.000214182447948
36 0.0
37 0.0
38 0.0
39 0.000009173132145
40 0.000022888559831
41 -0.000100512754940
42 0.000629296804850
43 0.0
44 0.0
45 0.000013815211048
46 0.0
47 0.0
48 0.000037399826344
49 0.0
50 0.0
51 -0.000187527579046
52 0.000010775012495
53 0.000010775012495
54 -0.000021550024991
55 0.0
56 0.0
57 0.0
 Sym=      4.1
 Ene=      -1.6355
 Spin= Alpha
 Occup=    2.000000
1 -0.045556797454359
2 -0.073807412791635
3 0.19506510552833
4 -0.073949686126666
5 0.0
6 0.0
7 0.057346247082737
8 0.0
9 0.0
10 0.071219835741945
11 0.0
12 0.0
13 -0.038398602281677
14 -0.006551627664106
15 -0.006551627664105
16 0.013103255328211
17 0.0
18 0.0
19 0.0
20 -0.096019125075214
21 -0.15886510801284
22 0.44479119985660
23 0.20107954392268
24 0.0
25 0.0
26 0.013653070830255
27 0.0
28 0.0
29 0.035054686715600
30 0.0
31 0.0
32 -0.14650627518113
33 -0.021195099070932
34 -0.021195099070933
35 0.042390198141865
36 0.0
37 0.0
38 0.0
39 -0.071737440612122
40 -0.11875456039711
41 0.33038328985023
42 0.29450318531412
43 0.0
44 0.0
45 -0.058556550188520
46 0.0
47 0.0
48 -0.090370373636229
49 0.0
50 0.0
51 -0.068646725995482
52 -0.007645191806436
53 -0.007645191806436
54 0.015290383612872
55 0.0
56 0.0
57 0.0
 Sym=      5.1
 Ene=      -1.4533
 Spin= Alpha
 Occup=    2.000000
1 0.075586902476149
2 0.12469763973915
3 -0.33447130507611
4 -0.21466641945206
5 0.0
6 0.0
7 -0.088135483035930
8 0.0
9 0.0
10 -0.12463366258744
11 0.0
12 0.0
13 -0.051860426490273
14 0.014053711326595
15 0.014053711326597
16 -0.028107422653192
17 0.0
18 0.0
19 0.0
20 0.030878517723742
21 0.050752692604077
22 -0.13752894837515
23 -0.040115566818805
24 0.0
25 0.0
26 0.17941996783685
27 0.0
28 0.0
29 0.24969440889580
30 0.0
31 0.0
32 -0.030389533004339
33 0.000922343972511
34 0.000922343972511
35 -0.001844687945022
36 0.0
37 0.0
38 0.0
39 -0.068852316439043
40 -0.11514796910151
41 0.32746471670459
42 0.27900430399892
43 0.0
44 0.0
45 -0.037850489537113
46 0.0
47 0.0
48 -0.066923922050673
49 0.0
50 0.0
51 -0.046653690116097
52 -0.007384036762889
53 -0.007384036762889
54 0.014768073525777
55 0.0
56 0.0
57 0.0
 Sym=      6.1
 Ene=      -0.8230
 Spin= Alpha
 Occup=    2.000000
1 -0.040352207821117
2 -0.067928714335805
3 0.19039950545462
4 0.31679316106702
5 0.0
6 0.0
7 -0.027421253944133
8 0.0
9 0.0
10 -0.041905960501085
11 0.0
12 0.0
13 0.026827398792742
14 0.000680087206998
15 0.000680087206999
16 -0.001360174413997
17 0.0
18 0.0
19 0.0
20 0.053799108248108
21 0.092289200575926
22 -0.29440115705634
23 -0.30029124045905
24 0.0
25 0.0
26 -0.10085673848620
27 0.0
28 0.0
29 -0.17393030622791
30 0.0
31 0.0
32 0.048430518710856
33 0.003641535782756
34 0.003641535782756
35 -0.007283071565513
36 0.0
37 0.0
38 0.0
39 -0.070100608752417
40 -0.11880470450799
41 0.35617890152297
42 0.41209609153274
43 0.0
44 0.0
45 0.18399426788707
46 0.0
47 0.0
48 0.27452717679161
49 0.0
50 0.0
51 0.17349592362088
52 0.013180553301929
53 0.013180553301929
54 -0.026361106603859
55 0.0
56 0.0
57 0.0
 Sym=      1.3
 Ene=      -0.7795
 Spin= Alpha
 Occup=    2.000000
1 0.0
2 0.0
3 0.0
4 0.0
5 0.0
6 0.12006715107889
7 0.0
8 0.0
9 0.20175296388869
10 0.0
11 0.0
12 0.10018896176782
13 0.0
14 0.0
15 0.0
16 0.0
17 0.0
18 0.0
19 0.039740568924181
20 0.0
21 0.0
22 0.0
23 0.0
24 0.0
25 0.20184228868201
26 0.0
27 0.0
28 0.33425138277578
29 0.0
30 0.0
31 0.20921365559331
32 0.0
33 0.0
34 0.0
35 0.0
36 0.0
37 0.0
38 0.002435799175717
39 0.0
40 0.0
41 0.0
42 0.0
43 0.0
44 0.14600268684584
45 0.0
46 0.0
47 0.23630288020925
48 0.0
49 0.0
50 0.15493288194326
51 0.0
52 0.0
53 0.0
54 0.0
55 0.0
56 0.0
57 -0.026729216445886
 Sym=      1.2
 Ene=      -0.7795
 Spin= Alpha
 Occup=    2.000000
1 0.0
2 0.0
3 0.0
4 0.0
5 0.12006715107889
6 0.0
7 0.0
8 0.20175296388869
9 0.0
10 0.0
11 0.10018896176782
12 0.0
13 0.0
14 0.0
15 0.0
16 0.0
17 0.0
18 0.039740568924181
19 0.0
20 0.0
21 0.0
22 0.0
23 0.0
24 0.20184228868201
25 0.0
26 0.0
27 0.33425138277578
28 0.0
29 0.0
30 0.20921365559330
31 0.0
32 0.0
33 0.0
34 0.0
35 0.0
36 0.0
37 0.002435799175718
38 0.0
39 0.0
40 0.0
41 0.0
42 0.0
43 0.14600268684584
44 0.0
45 0.0
46 0.23630288020925
47 0.0
48 0.0
49 0.15493288194327
50 0.0
51 0.0
52 0.0
53 0.0
54 0.0
55 0.0
56 -0.026729216445886
57 0.0
 Sym=      7.1
 Ene=      -0.6960
 Spin= Alpha
 Occup=    2.000000
1 0.070829408556251
2 0.11974780610084
3 -0.34205653091180
4 -0.54426467481275
5 0.0
6 0.0
7 0.20851935618288
8 0.0
9 0.0
10 0.29954040709091
11 0.0
12 0.0
13 0.15563132610573
14 -0.014238512117310
15 -0.014238512117313
16 0.028477024234623
17 0.0
18 0.0
19 0.0
20 -0.022889278124455
21 -0.039163828449746
22 0.11717316178235
23 0.12889805481081
24 0.0
25 0.0
26 -0.12304863523251
27 0.0
28 0.0
29 -0.18206413384476
30 0.0
31 0.0
32 -0.086558517363079
33 -0.000601064997435
34 -0.000601064997434
35 0.001202129994868
36 0.0
37 0.0
38 0.0
39 -0.013206226501845
40 -0.022168730186877
41 0.064653657518023
42 0.11300607603469
43 0.0
44 0.0
45 0.077096460962924
46 0.0
47 0.0
48 0.11949994416465
49 0.0
50 0.0
51 0.079857792891440
52 0.006340650676053
53 0.006340650676052
54 -0.012681301352105
55 0.0
56 0.0
57 0.0
 Sym=      2.3
 Ene=      -0.4924
 Spin= Alpha
 Occup=    2.000000
1 0.0
2 0.0
3 0.0
4 0.0
5 0.0
6 -0.16663862130549
7 0.0
8 0.0
9 -0.26313372327205
10 0.0
11 0.0
12 -0.24907941478687
13 0.0
14 0.0
15 0.0
16 0.0
17 0.0
18 0.0
19 -0.028413027127997
20 0.0
21 0.0
22 0.0
23 0.0
24 0.0
25 -0.062491365170898
26 0.0
27 0.0
28 -0.10244748928503
29 0.0
30 0.0
31 -0.071549847484672
32 0.0
33 0.0
34 0.0
35 0.0
36 0.0
37 0.0
38 0.072104894742586
39 0.0
40 0.0
41 0.0
42 0.0
43 0.0
44 0.23385023856160
45 0.0
46 0.0
47 0.35705301147898
48 0.0
49 0.0
50 0.38069674159464
51 0.0
52 0.0
53 0.0
54 0.0
55 0.0
56 0.0
57 -0.017540920571753
 Sym=      2.2
 Ene=      -0.4924
 Spin= Alpha
 Occup=    2.000000
1 0.0
2 0.0
3 0.0
4 0.0
5 -0.16663862130549
6 0.0
7 0.0
8 -0.26313372327205
9 0.0
10 0.0
11 -0.24907941478687
12 0.0
13 0.0
14 0.0
15 0.0
16 0.0
17 0.0
18 -0.028413027127997
19 0.0
20 0.0
21 0.0
22 0.0
23 0.0
24 -0.062491365170899
25 0.0
26 0.0
27 -0.10244748928503
28 0.0
29 0.0
30 -0.071549847484673
31 0.0
32 0.0
33 0.0
34 0.0
35 0.0
36 0.0
37 0.072104894742586
38 0.0
39 0.0
40 0.0
41 0.0
42 0.0
43 0.23385023856160
44 0.0
45 0.0
46 0.35705301147898
47 0.0
48 0.0
49 0.38069674159464
50 0.0
51 0.0
52 0.0
53 0.0
54 0.0
55 0.0
56 -0.017540920571754
57 0.0
 Sym=      3.2
 Ene=       0.1780
 Spin= Alpha
 Occup=    0.000000
1 0.0
2 0.0
3 0.0
4 0.0
5 -0.18925463174390
6 0.0
7 0.0
8 -0.26649550728891
9 0.0
10 0.0
11 -0.69289243922411
12 0.0
13 0.0
14 0.0
15 0.0
16 0.0
17 0.0
18 0.020641278703518
19 0.0
20 0.0
21 0.0
22 0.0
23 0.0
24 0.22380636401289
25 0.0
26 0.0
27 0.37204634288759
28 0.0
29 0.0
30 0.68851320225927
31 0.0
32 0.0
33 0.0
34 0.0
35 0.0
36 0.0
37 0.017178446501849
38 0.0
39 0.0
40 0.0
41 0.0
42 0.0
43 -0.13058315154506
44 0.0
45 0.0
46 -0.18349250047375
47 0.0
48 0.0
49 -0.38508793811980
50 0.0
51 0.0
52 0.0
53 0.0
54 0.0
55 0.0
56 -0.015582691619337
57 0.0
 Sym=      3.3
 Ene=       0.1780
 Spin= Alpha
 Occup=    0.000000
1 0.0
2 0.0
3 0.0
4 0.0
5 0.0
6 -0.18925463174390
7 0.0
8 0.0
9 -0.26649550728891
10 0.0
11 0.0
12 -0.69289243922411
13 0.0
14 0.0
15 0.0
16 0.0
17 0.0
18 0.0
19 0.020641278703518
20 0.0
21 0.0
22 0.0
23 0.0
24 0.0
25 0.22380636401289
26 0.0
27 0.0
28 0.37204634288759
29 0.0
30 0.0
31 0.68851320225927
32 0.0
33 0.0
34 0.0
35 0.0
36 0.0
37 0.0
38 0.017178446501850
39 0.0
40 0.0
41 0.0
42 0.0
43 0.0
44 -0.13058315154506
45 0.0
46 0.0
47 -0.18349250047375
48 0.0
49 0.0
50 -0.38508793811980
51 0.0
52 0.0
53 0.0
54 0.0
55 0.0
56 0.0
57 -0.015582691619337
 Sym=      8.1
 Ene=       0.3581
 Spin= Alpha
 Occup=    0.000000
1 0.044120077147637
2 0.083090074628338
3 -0.40415563100198
4 1.97031521598510
5 0.0
6 0.0
7 -0.12122030509065
8 0.0
9 0.0
10 -0.15614304856665
11 0.0
12 0.0
13 0.60966397855473
14 -0.001460103642550
15 -0.001460103642547
16 0.002920207285098
17 0.0
18 0.0
19 0.0
20 -0.027532504096435
21 -0.041841614705846
22 -0.050794032919374
23 1.41235793445759
24 0.0
25 0.0
26 0.062357164518659
27 0.0
28 0.0
29 0.10224598019478
30 0.0
31 0.0
32 2.76885727993608
33 0.037665972997021
34 0.037665972997019
35 -0.075331945994040
36 0.0
37 0.0
38 0.0
39 0.051302075832257
40 0.086329979961924
41 -0.19163649097556
42 -2.64765468743979
43 0.0
44 0.0
45 0.14736294778636
46 0.0
47 0.0
48 0.21674228074461
49 0.0
50 0.0
51 1.43754230151817
52 0.009425581493532
53 0.009425581493532
54 -0.018851162987064
55 0.0
56 0.0
57 0.0
 Sym=      9.1
 Ene=       0.5423
 Spin= Alpha
 Occup=    0.000000
1 -0.037392270890060
2 -0.059111398876697
3 0.005638890342386
4 6.84251267320882
5 0.0
6 0.0
7 0.008613873353822
8 0.0
9 0.0
10 -0.093726937949599
11 0.0
12 0.0
13 3.92653418528009
14 0.006745898470246
15 0.006745898470242
16 -0.013491796940487
17 0.0
18 0.0
19 0.0
20 0.058406424406601
21 0.10565716733179
22 -0.39917789324056
23 -4.56859817685789
24 0.0
25 0.0
26 0.033419353572427
27 0.0
28 0.0
29 0.021228617130548
30 0.0
31 0.0
32 5.29745558450472
33 -0.020761703910979
34 -0.020761703910977
35 0.041523407821956
36 0.0
37 0.0
38 0.0
39 0.001458151825545
40 -0.001405069170027
41 0.11241709309270
42 -2.59808540580947
43 0.0
44 0.0
45 -0.083548550049942
46 0.0
47 0.0
48 -0.12331768308274
49 0.0
50 0.0
51 0.79509951229744
52 0.013762387732085
53 0.013762387732085
54 -0.027524775464170
55 0.0
56 0.0
57 0.0
 Sym=      4.3
 Ene=       0.6772
 Spin= Alpha
 Occup=    0.000000
1 0.0
2 0.0
3 0.0
4 0.0
5 0.0
6 -0.13688408962497
7 0.0
8 0.0
9 -0.55017921989919
10 0.0
11 0.0
12 0.50210720487005
13 0.0
14 0.0
15 0.0
16 0.0
17 0.0
18 0.0
19 -0.049743784536452
20 0.0
21 0.0
22 0.0
23 0.0
24 0.0
25 -0.12194442271540
26 0.0
27 0.0
28 -0.56483802744607
29 0.0
30 0.0
31 0.89426200046362
32 0.0
33 0.0
34 0.0
35 0.0
36 0.0
37 0.0
38 0.026123232164794
39 0.0
40 0.0
41 0.0
42 0.0
43 0.0
44 -0.059259438249832
45 0.0
46 0.0
47 -0.17251263840400
48 0.0
49 0.0
50 -0.027627862189232
51 0.0
52 0.0
53 0.0
54 0.0
55 0.0
56 0.0
57 0.012390307137921
 Sym=      4.2
 Ene=       0.6772
 Spin= Alpha
 Occup=    0.000000
1 0.0
2 0.0
3 0.0
4 0.0
5 -0.13688408962497
6 0.0
7 0.0
8 -0.55017921989919
9 0.0
10 0.0
11 0.50210720487005
12 0.0
13 0.0
14 0.0
15 0.0
16 0.0
17 0.0
18 -0.049743784536451
19 0.0
20 0.0
21 0.0
22 0.0
23 0.0
24 -0.12194442271540
25 0.0
26 0.0
27 -0.56483802744607
28 0.0
29 0.0
30 0.89426200046362
31 0.0
32 0.0
33 0.0
34 0.0
35 0.0
36 0.0
37 0.026123232164794
38 0.0
39 0.0
40 0.0
41 0.0
42 0.0
43 -0.059259438249832
44 0.0
45 0.0
46 -0.17251263840400
47 0.0
48 0.0
49 -0.027627862189235
50 0.0
51 0.0
52 0.0
53 0.0
54 0.0
55 0.0
56 0.012390307137921
57 0.0
 Sym=     10.1
 Ene=       0.7685
 Spin= Alpha
 Occup=    0.000000
1 0.014741859223409
2 0.032796963376186
3 -0.14529442518218
4 2.35668206515632
5 0.0
6 0.0
7 0.094805672059271
8 0.0
9 0.0
10 0.32594645555197
11 0.0
12 0.0
13 -0.017015853299071
14 0.012090016667389
15 0.012090016667391
16 -0.024180033334779
17 0.0
18 0.0
19 0.0
20 0.059464991282407
21 0.11708347819413
22 -0.64400010026916
23 0.44831693562635
24 0.0
25 0.0
26 -0.16098430717107
27 0.0
28 0.0
29 -0.59414866114873
30 0.0
31 0.0
32 3.42435790744418
33 -0.039932242441832
34 -0.039932242441833
35 0.079864484883665
36 0.0
37 0.0
38 0.0
39 0.005022999728617
40 0.009594492695259
41 -0.036900648041034
42 -2.13741378641873
43 0.0
44 0.0
45 -0.14671638406973
46 0.0
47 0.0
48 -0.22115516826636
49 0.0
50 0.0
51 0.55780087685518
52 0.033706183672656
53 0.033706183672656
54 -0.067412367345313
55 0.0
56 0.0
57 0.0
 Sym=     11.1
 Ene=       0.8211
 Spin= Alpha
 Occup=    0.000000
1 -0.062072538711043
2 -0.13232828602286
3 0.94105714067277
4 2.08924431185334
5 0.0
6 0.0
7 -0.042437394508270
8 0.0
9 0.0
10 -0.018231627665351
11 0.0
12 0.0
13 0.83049038498357
14 -0.022085213193494
15 -0.022085213193501
16 0.044170426386995
17 0.0
18 0.0
19 0.0
20 -0.053304085038903
21 -0.11552592856657
22 0.94049262602849
23 -0.97137734392033
24 0.0
25 0.0
26 0.017055979571620
27 0.0
28 0.0
29 -0.11392027285397
30 0.0
31 0.0
32 3.51968281211466
33 0.002224234560422
34 0.002224234560425
35 -0.004448469120847
36 0.0
37 0.0
38 0.0
39 0.040930625318657
40 0.071382358316341
41 -0.22415460058189
42 -2.19977481489497
43 0.0
44 0.0
45 -0.038006092222842
46 0.0
47 0.0
48 -0.31821568677585
49 0.0
50 0.0
51 1.57381548460299
52 -0.017081413131591
53 -0.017081413131592
54 0.034162826263183
55 0.0
56 0.0
57 0.0
 Sym=      5.3
 Ene=       0.8696
 Spin= Alpha
 Occup=    0.000000
1 0.0
2 0.0
3 0.0
4 0.0
5 0.0
6 -0.17634977170690
7 0.0
8 0.0
9 -0.66261428264194
10 0.0
11 0.0
12 1.36754028368938
13 0.0
14 0.0
15 0.0
16 0.0
17 0.0
18 0.0
19 -0.007149262837164
20 0.0
21 0.0
22 0.0
23 0.0
24 0.0
25 0.14344330074402
26 0.0
27 0.0
28 0.54218381671024
29 0.0
30 0.0
31 -1.23684836977222
32 0.0
33 0.0
34 0.0
35 0.0
36 0.0
37 0.0
38 0.085155026451278
39 0.0
40 0.0
41 0.0
42 0.0
43 0.0
44 0.073615133187768
45 0.0
46 0.0
47 0.25071815938180
48 0.0
49 0.0
50 -0.10755882106960
51 0.0
52 0.0
53 0.0
54 0.0
55 0.0
56 0.0
57 -0.025729203817805
 Sym=      5.2
 Ene=       0.8696
 Spin= Alpha
 Occup=    0.000000
1 0.0
2 0.0
3 0.0
4 0.0
5 -0.17634977170690
6 0.0
7 0.0
8 -0.66261428264194
9 0.0
10 0.0
11 1.36754028368938
12 0.0
13 0.0
14 0.0
15 0.0
16 0.0
17 0.0
18 -0.007149262837165
19 0.0
20 0.0
21 0.0
22 0.0
23 0.0
24 0.14344330074402
25 0.0
26 0.0
27 0.54218381671024
28 0.0
29 0.0
30 -1.23684836977222
31 0.0
32 0.0
33 0.0
34 0.0
35 0.0
36 0.0
37 0.085155026451279
38 0.0
39 0.0
40 0.0
41 0.0
42 0.0
43 0.073615133187769
44 0.0
45 0.0
46 0.25071815938180
47 0.0
48 0.0
49 -0.10755882106960
50 0.0
51 0.0
52 0.0
53 0.0
54 0.0
55 0.0
56 -0.025729203817805
57 0.0
 Sym=     12.1
 Ene=       0.9004
 Spin= Alpha
 Occup=    0.000000
1 0.033924041943832
2 0.070625702393898
3 -0.60599364822112
4 2.37856098881922
5 0.0
6 0.0
7 0.15134571150226
8 0.0
9 0.0
10 0.66483013599774
11 0.0
12 0.0
13 0.47231720170082
14 -0.013149637225461
15 -0.013149637225457
16 0.026299274450918
17 0.0
18 0.0
19 0.0
20 0.016561807256529
21 0.031502513561612
22 0.008171954686664
23 -0.54361213896393
24 0.0
25 0.0
26 0.088059628803944
27 0.0
28 0.0
29 0.62597093989308
30 0.0
31 0.0
32 1.21973345764086
33 -0.002631339884766
34 -0.002631339884767
35 0.005262679769534
36 0.0
37 0.0
38 0.0