
 Working directory              : /tmp/lme/molpro.sCtCoddW1j/
 Global scratch directory       : /tmp/lme/molpro.sCtCoddW1j/
 Wavefunction directory         : /home/lme/wfu/
 Main file repository           : /tmp/lme/molpro.sCtCoddW1j/

 id        : liedlgroup

 Nodes     nprocs
 sv1-c724     1
 GA implementation: MPI file
 GA implementation (serial work in mppx): MPI file

 Using customized tuning parameters: mindgm=1; mindgv=20; mindgc=4; mindgr=1; noblas=0; minvec=7
 default implementation of scratch files=df  


 Variables initialized (1025), CPU time= 0.00 sec
 memory, 200, m                                                                  ! Memory Requirements
 gthresh, optgrad=1.d-7,twoint=1.d-14,prefac=1.d-16                            ! Guntram Rezept um numerischen Schmutz zu entfernen
 orient,mass
 geometry = {
 3
 [CAM-B3LYP-D3BJ/def2TZVP]
 N 0.000000 0.000000 -1.187431
 N 0.000000 0.000000 -0.074171
 O 0.000000 0.000000 1.103902
 }
 
 mass, iso
 basis=6-311g(d,p)
 
 {hf
 start,atden}
 
 optg
 {frequencies, symm=auto, print=0,analytical}
 put,molden,formic_acid_dimer.molden
 Commands initialized (840), CPU time= 0.01 sec, 684 directives.
 Default parameters read. Elapsed time= 0.05 sec

 Checking input...
 Passed
1


                                         ***  PROGRAM SYSTEM MOLPRO  ***
                                       Copyright, TTI GmbH Stuttgart, 2015
                                    Version 2022.3 linked Wed Nov 30 12:40:34 2022


 **********************************************************************************************************************************
 LABEL *                                                                                 
  (6 PROC) 64 bit serial version                                                         DATE: 21-Aug-25          TIME: 21:21:35  
 **********************************************************************************************************************************

 SHA1:             e31ec9a5ea85254ab76f59d122cbdd51c71cf98b
 **********************************************************************************************************************************

 Memory per process:       200 MW
 Total memory per node:    200 MW

 GA preallocation disabled
 GA check disabled

 Variable memory set to 200.0 MW


 THRESHOLDS:

 ZERO    =  1.00D-12  ONEINT  =  1.00D-12  TWOINT  =  1.00D-14  PREFAC  =  1.00D-16  XXXXXX  =  1.00D-09  EORDER  =  1.00D-04
 ENERGY  =  0.00D+00  ETEST   =  0.00D+00  EDENS   =  0.00D+00  THRDEDEF=  1.00D-06  GRADIENT=  1.00D-05  STEP    =  1.00D-03
 ORBITAL =  1.00D-05  CIVEC   =  1.00D-05  COEFF   =  1.00D-04  PRINTCI =  5.00D-02  PUNCHCI =  9.90D+01  OPTGRAD =  1.00D-07
 OPTENERG=  1.00D-06  OPTSTEP =  3.00D-04  THRGRAD =  1.00D-10  COMPRESS=  1.00D-11  VARMIN  =  1.00D-07  VARMAX  =  1.00D-03
 THRDOUB =  0.00D+00  THRDIV  =  1.00D-05  THRRED  =  1.00D-07  THRPSP  =  1.00D+00  THRDC   =  1.00D-10  THRCS   =  1.00D-10
 THRNRM  =  1.00D-08  THREQ   =  0.00D+00  THRDE   =  1.00D+00  THRREF  =  1.00D-05  SPARFAC =  1.00D+00  THRDLP  =  1.00D-07
 THRDIA  =  1.00D-10  THRDLS  =  1.00D-07  THRGPS  =  0.00D+00  THRKEX  =  0.00D+00  THRDIS  =  2.00D-01  THRVAR  =  1.00D-10
 THRLOC  =  1.00D-06  THRGAP  =  1.00D-06  THRLOCT = -1.00D+00  THRGAPT = -1.00D+00  THRORB  =  1.00D-06  THRMLTP =  0.00D+00
 THRCPQCI=  1.00D-10  KEXTA   =  0.00D+00  THRCOARS=  0.00D+00  SYMTOL  =  1.00D-06  GRADTOL =  1.00D-06  THROVL  =  1.00D-08
 THRORTH =  1.00D-08  THRDLOVL= -1.00D+00  GRID    =  1.00D-06  GRIDMAX =  1.00D-03  DTMAX   =  0.00D+00  THROCCDE=  1.00D-01
 THROCCDE=  1.00D-01  THRPRINT=  2.50D-01

 ZCENTRE=MASS


 Geometry recognized as XYZ

 Faulty geometry input, specified line:
CAM-B3LYP-D3BJ/DEF2TZVP         
 Your input contained                     1  fields, but there should have been                     4

 Z matrix     Current Z-matrix
 ========

 Records:   700.0   700.0
 Maximum, total, and current numbers of geometry points 100   0   0
 Orientation using atomic masses  

   #     Tag     N1 Distance  N2 Angle     N3 Angle        J

 ? Error
 ? Too few geometry parameters given on zmatrix line
 ? The problem occurs in zmatrix

 GLOBAL ERROR fehler on processor   0                                         
