
 Working directory              : /tmp/lme/molpro.Gzpdwu7J9n/
 Global scratch directory       : /tmp/lme/molpro.Gzpdwu7J9n/
 Wavefunction directory         : /home/lme/wfu/
 Main file repository           : /tmp/lme/molpro.Gzpdwu7J9n/

 id        : liedlgroup

 Nodes     nprocs
 sv1-c724     6
 GA implementation: MPI file
 GA implementation (serial work in mppx): MPI file

 Using customized tuning parameters: mindgm=1; mindgv=20; mindgc=4; mindgr=1; noblas=0; minvec=7
 default implementation of scratch files=sf  


 Variables initialized (1025), CPU time= 0.00 sec
 memory, 200, m                                                                  ! Memory Requirements
 gthresh, optgrad=1.d-7,twoint=1.d-14,prefac=1.d-16                            ! Guntram Rezept um numerischen Schmutz zu entfernen
 orient,mass
 geometry = {
 N, 0.000000, 0.000000, -1.187431
 N, 0.000000, 0.000000, -0.074171
 O, 0.000000, 0.000000, 1.103902
 }
 
 mass, iso
 basis=6-311g(d,p)
 
 {hf
 start,atden}
 
 optg
 {frequencies, symm=auto, print=0,analytical}
 put,molden,formic_acid_dimer.molden
 Commands initialized (840), CPU time= 0.01 sec, 684 directives.
 Default parameters read. Elapsed time= 0.06 sec

 Checking input...
 Passed
1


                                         ***  PROGRAM SYSTEM MOLPRO  ***
                                       Copyright, TTI GmbH Stuttgart, 2015
                                    Version 2022.3 linked Wed Nov 30 12:40:34 2022


 **********************************************************************************************************************************
 LABEL *                                                                                 
  (6 PROC) 64 bit mpp version                                                            DATE: 21-Aug-25          TIME: 21:22:38  
 **********************************************************************************************************************************

 SHA1:             e31ec9a5ea85254ab76f59d122cbdd51c71cf98b
 **********************************************************************************************************************************

 Memory per process:       200 MW
 Total memory per node:   1200 MW

 GA preallocation disabled
 GA check disabled

 Variable memory set to 200.0 MW


 THRESHOLDS:

 ZERO    =  1.00D-12  ONEINT  =  1.00D-12  TWOINT  =  1.00D-14  PREFAC  =  1.00D-16  XXXXXX  =  1.00D-09  EORDER  =  1.00D-04
 ENERGY  =  0.00D+00  ETEST   =  0.00D+00  EDENS   =  0.00D+00  THRDEDEF=  1.00D-06  GRADIENT=  1.00D-05  STEP    =  1.00D-03
 ORBITAL =  1.00D-05  CIVEC   =  1.00D-05  COEFF   =  1.00D-04  PRINTCI =  5.00D-02  PUNCHCI =  9.90D+01  OPTGRAD =  1.00D-07
 OPTENERG=  1.00D-06  OPTSTEP =  3.00D-04  THRGRAD =  1.00D-10  COMPRESS=  1.00D-11  VARMIN  =  1.00D-07  VARMAX  =  1.00D-03
 THRDOUB =  0.00D+00  THRDIV  =  1.00D-05  THRRED  =  1.00D-07  THRPSP  =  1.00D+00  THRDC   =  1.00D-10  THRCS   =  1.00D-10
 THRNRM  =  1.00D-08  THREQ   =  0.00D+00  THRDE   =  1.00D+00  THRREF  =  1.00D-05  SPARFAC =  1.00D+00  THRDLP  =  1.00D-07
 THRDIA  =  1.00D-10  THRDLS  =  1.00D-07  THRGPS  =  0.00D+00  THRKEX  =  0.00D+00  THRDIS  =  2.00D-01  THRVAR  =  1.00D-10
 THRLOC  =  1.00D-06  THRGAP  =  1.00D-06  THRLOCT = -1.00D+00  THRGAPT = -1.00D+00  THRORB  =  1.00D-06  THRMLTP =  0.00D+00
 THRCPQCI=  1.00D-10  KEXTA   =  0.00D+00  THRCOARS=  0.00D+00  SYMTOL  =  1.00D-06  GRADTOL =  1.00D-06  THROVL  =  1.00D-08
 THRORTH =  1.00D-08  THRDLOVL= -1.00D+00  GRID    =  1.00D-06  GRIDMAX =  1.00D-03  DTMAX   =  0.00D+00  THROCCDE=  1.00D-01
 THROCCDE=  1.00D-01  THRPRINT=  2.50D-01

 ZCENTRE=MASS


 Geometry recognized as XYZ



 Using masses of most abundant isotopes

 **********************************************************************************************************************************
 SETTING BASIS          =    6-311G(D,P)


 Recomputing integrals since basis changed


 Using spherical harmonics

 Library entry N      S 6-311G               selected for orbital group  1
 Library entry N      P 6-311G               selected for orbital group  1
 Library entry N      D 6-311G*              selected for orbital group  1
 Library entry O      S 6-311G               selected for orbital group  2
 Library entry O      P 6-311G               selected for orbital group  2
 Library entry O      D 6-311G*              selected for orbital group  2


 PROGRAM * SEWARD (Integral evaluation for generally contracted gaussian basis sets)     Author: Roland Lindh, 1990

 Geometry written to block  1 of record 700

 Orientation using atomic masses  
 Molecule type: Linear
 Symmetry elements: X,Y
 Rotational constants:      12.8553796     12.8553796      0.0000000 GHz

 Point group  C2v 



 ATOMIC COORDINATES

 NR  ATOM    CHARGE       X              Y              Z

   1  N       7.00    0.000000000    0.000000000   -2.243511899
   2  N       7.00    0.000000000    0.000000000   -0.139755393
   3  O       8.00    0.000000000    0.000000000    2.086479931

 Bond lengths in Bohr (Angstrom)

 1-2  2.103756506  2-3  2.226235325
     ( 1.113260000)     ( 1.178073000)

 Bond angles

  1-2-3  180.00000000

 NUCLEAR CHARGE:                   22
 NUMBER OF PRIMITIVE AOS:          96
 NUMBER OF SYMMETRY AOS:           93
 NUMBER OF CONTRACTIONS:           54   (   27A1  +   12B1  +   12B2  +    3A2  )
 NUMBER OF INNER CORE ORBITALS:     0   (    0A1  +    0B1  +    0B2  +    0A2  )
 NUMBER OF OUTER CORE ORBITALS:     3   (    3A1  +    0B1  +    0B2  +    0A2  )
 NUMBER OF VALENCE ORBITALS:       12   (    6A1  +    3B1  +    3B2  +    0A2  )


 NUCLEAR REPULSION ENERGY   61.37929217

 EXTRA SYMMETRY OF AOS IN SYMMETRY 1:   1 1 1 1 1 1 1 1 2 1   1 1 1 1 1 1 1 2 1 1   1 1 1 1 1 1 2

 Eigenvalues of metric

         1 0.153E-02 0.899E-02 0.355E-01 0.793E-01 0.958E-01 0.101E+00 0.113E+00 0.161E+00
         2 0.921E-01 0.183E+00 0.237E+00 0.313E+00 0.420E+00 0.766E+00 0.918E+00 0.998E+00
         3 0.921E-01 0.183E+00 0.237E+00 0.313E+00 0.420E+00 0.766E+00 0.918E+00 0.998E+00
         4 0.851E+00 0.100E+01 0.115E+01


 Contracted 2-electron integrals neglected if value below      1.0D-14
 AO integral compression algorithm  1   Integral accuracy      1.0D-14

     3.670 MB (compressed) written to integral file ( 99.0%)

     Node minimum: 0.524 MB, node maximum: 0.786 MB


 NUMBER OF SORTED TWO-ELECTRON INTEGRALS:      53154.     BUFFER LENGTH:  32768
 NUMBER OF SEGMENTS:   1  SEGMENT LENGTH:      53154      RECORD LENGTH: 524288

 Memory used in sort:       0.61 MW

 SORT1 READ      409278. AND WROTE       47268. INTEGRALS IN      1 RECORDS. CPU TIME:     0.01 SEC, REAL TIME:     0.02 SEC
 SORT2 READ      281515. AND WROTE      317574. INTEGRALS IN     12 RECORDS. CPU TIME:     0.01 SEC, REAL TIME:     0.01 SEC

 Node minimum:       52704.  Node maximum:       53154. integrals

 OPERATOR DM      FOR CENTER  0  COORDINATES:    0.000000    0.000000    0.000000


 **********************************************************************************************************************************
 DATASETS  * FILE   NREC   LENGTH (MB)   RECORD NAMES
              1      18       28.63       500      610      700      900      950      970     1000      129      960     1100   
                                          VAR    BASINP    GEOM    SYMINP    ZMAT    AOBASIS   BASIS     P2S    ABASIS      S 
                                         1400     1410     1200     1210     1080     1600     1650     1700   
                                           T        V       H0       H01     AOSYM     SMH    MOLCAS    OPER   

 PROGRAMS   *        TOTAL       INT
 CPU TIMES  *         0.48      0.34
 REAL TIME  *         0.56 SEC
 DISK USED  *        28.93 MB (local),      199.80 MB (total)
 GA USED    *         0.00 MB       (max)       0.00 MB       (current)
 **********************************************************************************************************************************


 Program * Restricted Hartree-Fock

 Orbital guess generated from atomic densities.

 Initial occupancy:   7   2   2   0

 NELEC=   22   SYM=1   MS2= 0   THRE=1.0D-08   THRD=1.0D-06   THRG=1.0D-06  HFMA2=F  DIIS_START=2   DIIS_MAX=10   DIIS_INCORE=F

 Level shifts:    0.00 (CLOSED)    0.00 (OPEN)    0.30 (GAP_MIN)

 ITER           ETOT              DE          GRAD        DDIFF     DIIS  NEXP   TIME(IT)  TIME(TOT)  DIAG
   1     -183.63226582    -183.63226582     0.00D+00     0.13D+00     0     0       0.02      0.03    start
   2     -183.67739051      -0.04512469     0.27D-01     0.24D-01     1     0       0.01      0.04    diag
   3     -183.72467635      -0.04728584     0.20D-01     0.89D-02     2     0       0.01      0.05    diag
   4     -183.72536656      -0.00069022     0.19D-02     0.21D-02     3     0       0.00      0.05    diag
   5     -183.72557566      -0.00020910     0.11D-02     0.83D-03     4     0       0.00      0.05    diag
   6     -183.72562945      -0.00005378     0.41D-03     0.43D-03     5     0       0.00      0.05    diag
   7     -183.72563641      -0.00000696     0.15D-03     0.22D-03     6     0       0.02      0.07    diag
   8     -183.72563668      -0.00000027     0.32D-04     0.54D-04     7     0       0.00      0.07    fixocc
   9     -183.72563668      -0.00000000     0.47D-05     0.70D-05     8     0       0.00      0.07    diag
  10     -183.72563668      -0.00000000     0.25D-06     0.45D-06     9     0       0.02      0.09    diag/orth
  11     -183.72563668      -0.00000000     0.56D-07     0.13D-06     0     0       0.01      0.10    diag

 Final occupancy:   7   2   2   0

 !RHF STATE 1.1 Energy               -183.725636683702
  RHF One-electron energy            -371.634324265619
  RHF Two-electron energy             126.529395410806
  RHF Kinetic energy                  183.568780887103
  RHF Nuclear energy                   61.379292171111
  RHF Virial quotient                  -1.000854479699

 !RHF STATE 1.1 Dipole moment           0.00000000     0.00000000    -0.27048507
 Dipole moment /Debye                   0.00000000     0.00000000    -0.68750448

 Orbital energies:

           1.1          2.1          3.1          4.1          5.1          6.1          7.1          8.1          9.1
    -20.648695   -15.841910   -15.694205    -1.623909    -1.436506    -0.827604    -0.696879     0.347956     0.536535

           1.2          2.2          3.2          4.2
     -0.769073    -0.489956     0.161797     0.682470

           1.3          2.3          3.3          4.3
     -0.769073    -0.489956     0.161797     0.682470

           1.4          2.4
      1.886843     2.402555


 HOMO      2.3    -0.489956 =     -13.3324eV
 LUMO      3.2     0.161797 =       4.4027eV
 LUMO-HOMO         0.651753 =      17.7351eV

 Orbitals saved in record  2100.2


 **********************************************************************************************************************************
 DATASETS  * FILE   NREC   LENGTH (MB)   RECORD NAMES
              1      18       28.64       500      610      700      900      950      970     1000      129      960     1100   
                                          VAR    BASINP    GEOM    SYMINP    ZMAT    AOBASIS   BASIS     P2S    ABASIS      S 
                                         1400     1410     1200     1210     1080     1600     1650     1700   
                                           T        V       H0       H01     AOSYM     SMH    MOLCAS    OPER   

              2       4        0.40       700     1000      520     2100   
                                         GEOM     BASIS   MCVARS     RHF  

 PROGRAMS   *        TOTAL    HF-SCF       INT
 CPU TIMES  *         0.58      0.10      0.34
 REAL TIME  *         0.59 SEC
 DISK USED  *        29.15 MB (local),      201.15 MB (total)
 GA USED    *         0.00 MB       (max)       0.00 MB       (current)
 **********************************************************************************************************************************


 PROGRAM * OPT (Geometry optimization)     Authors: F. Eckert and H.-J. Werner


 BFGS update of hessian

 *** Long output written to logfile /home/lme/overlap_integral_gaussian/molpro_files/n2o/n2o.log ***


 Geometry optimization using default procedure for command HF-SCF

 Geometry written to block  1 of record 700

 Entering BMAT geometry-optimization, modelhes=F
 Linear molecule detected. BMAT not used
 BMAT failed, using natural internal coordinates

 Making model hessian for cartesian coordinates

 Entering Rational Function Geometry Optimization

 ITER.   ENERGY(OLD)    ENERGY(NEW)      DE          GRADMAX     GRADNORM    GRADRMS     STEPMAX     STEPLEN     STEPRMS   CPU-time
   1  -183.72563668  -183.72801020    -0.00237352  0.08237579  0.10765536  0.02691384  0.05497457  0.05938144  0.03428389      1.80
   2  -183.72801020  -183.72810401    -0.00009381  0.02237134  0.02525322  0.00631331  0.00788174  0.00939694  0.00542532      3.45
   3  -183.72810401  -183.72810518    -0.00000117  0.00177171  0.00190973  0.00047743  0.00113623  0.00114013  0.00065826      5.12
   4  -183.72810518  -183.72810523    -0.00000005  0.00032602  0.00040970  0.00010243  0.00023469  0.00025606  0.00014784      6.90
   5  -183.72810523  -183.72810523    -0.00000000  0.00011775  0.00011812  0.00002953  0.00003642  0.00004587  0.00002649      8.49
   6  -183.72810523  -183.72810523    -0.00000000  0.00000896  0.00000983  0.00000246  0.00000219  0.00000285  0.00000164     10.16
   7  -183.72810523  -183.72810523     0.00000000  0.00000049  0.00000060  0.00000015  0.00000037  0.00000041  0.00000024     11.80
   8  -183.72810523  -183.72810523    -0.00000000  0.00000131  0.00000133  0.00000033  0.00000015  0.00000018  0.00000010     13.58
   9  -183.72810523  -183.72810523    -0.00000000  0.00000049  0.00000050  0.00000012  0.00000005  0.00000006  0.00000003     15.28
  10  -183.72810523  -183.72810523     0.00000000  0.00000096  0.00000098  0.00000024  0.00000003  0.00000004  0.00000002     16.94
  11  -183.72810523  -183.72810523    -0.00000000  0.00000044  0.00000046  0.00000011  0.00000001  0.00000002  0.00000001     18.62
  12  -183.72810523  -183.72810523     0.00000000  0.00000096  0.00000098  0.00000024  0.00000003  0.00000004  0.00000002     20.32
  13  -183.72810523  -183.72810523     0.00000000  0.00000096  0.00000098  0.00000024  0.00000003  0.00000004  0.00000002     21.65
  14  -183.72810523  -183.72810523     0.00000000  0.00000096  0.00000098  0.00000024  0.00000003  0.00000004  0.00000002     22.88
  15  -183.72810523  -183.72810523     0.00000000  0.00000096  0.00000098  0.00000024  0.00000003  0.00000004  0.00000002     24.22
  16  -183.72810523  -183.72810523    -0.00000000  0.00000096  0.00000098  0.00000024  0.00000003  0.00000004  0.00000002     25.62
  17  -183.72810523  -183.72810523     0.00000000  0.00000096  0.00000098  0.00000024  0.00000003  0.00000004  0.00000002     26.86
  18  -183.72810523  -183.72810523    -0.00000000  0.00000096  0.00000098  0.00000024  0.00000003  0.00000004  0.00000002     28.17
  19  -183.72810523  -183.72810523    -0.00000000  0.00000096  0.00000098  0.00000024  0.00000003  0.00000004  0.00000002     29.56
  20  -183.72810523  -183.72810523     0.00000000  0.00000096  0.00000098  0.00000024  0.00000003  0.00000004  0.00000002     30.85
  21  -183.72810523  -183.72810523     0.00000000  0.00000096  0.00000098  0.00000024  0.00000003  0.00000004  0.00000002     32.14
  22  -183.72810523  -183.72810523     0.00000000  0.00000096  0.00000098  0.00000024  0.00000003  0.00000004  0.00000002     33.53
  23  -183.72810523  -183.72810523     0.00000000  0.00000096  0.00000098  0.00000024  0.00000003  0.00000004  0.00000002     34.94
  24  -183.72810523  -183.72810523     0.00000000  0.00000096  0.00000098  0.00000024  0.00000003  0.00000004  0.00000002     36.46
  25  -183.72810523  -183.72810523    -0.00000000  0.00000096  0.00000098  0.00000024  0.00000003  0.00000004  0.00000002     38.16
  26  -183.72810523  -183.72810523     0.00000000  0.00000096  0.00000098  0.00000024  0.00000003  0.00000004  0.00000002     39.55
  27  -183.72810523  -183.72810523     0.00000000  0.00000096  0.00000098  0.00000024  0.00000003  0.00000004  0.00000002     40.99
  28  -183.72810523  -183.72810523     0.00000000  0.00000096  0.00000098  0.00000024  0.00000003  0.00000004  0.00000002     42.66
  29  -183.72810523  -183.72810523     0.00000000  0.00000096  0.00000098  0.00000024  0.00000003  0.00000004  0.00000002     44.26
  30  -183.72810523  -183.72810523    -0.00000000  0.00000096  0.00000098  0.00000024  0.00000003  0.00000004  0.00000002     45.73
  31  -183.72810523  -183.72810523    -0.00000000  0.00000096  0.00000098  0.00000024  0.00000003  0.00000004  0.00000002     47.18
  32  -183.72810523  -183.72810523    -0.00000000  0.00000096  0.00000098  0.00000024  0.00000003  0.00000004  0.00000002     48.64
  33  -183.72810523  -183.72810523    -0.00000000  0.00000096  0.00000098  0.00000024  0.00000003  0.00000004  0.00000002     50.21
  34  -183.72810523  -183.72810523     0.00000000  0.00000096  0.00000098  0.00000024  0.00000003  0.00000004  0.00000002     51.74
  35  -183.72810523  -183.72810523    -0.00000000  0.00000096  0.00000098  0.00000024  0.00000003  0.00000004  0.00000002     53.16
  36  -183.72810523  -183.72810523     0.00000000  0.00000096  0.00000098  0.00000024  0.00000003  0.00000004  0.00000002     54.58
  37  -183.72810523  -183.72810523    -0.00000000  0.00000096  0.00000098  0.00000024  0.00000003  0.00000004  0.00000002     55.98
  38  -183.72810523  -183.72810523     0.00000000  0.00000096  0.00000098  0.00000024  0.00000003  0.00000004  0.00000002     57.30
  39  -183.72810523  -183.72810523     0.00000000  0.00000096  0.00000098  0.00000024  0.00000003  0.00000004  0.00000002     58.92
  40  -183.72810523  -183.72810523     0.00000000  0.00000096  0.00000098  0.00000024  0.00000003  0.00000004  0.00000002     60.18
  41  -183.72810523  -183.72810523     0.00000000  0.00000096  0.00000098  0.00000024  0.00000003  0.00000004  0.00000002     61.57
  42  -183.72810523  -183.72810523    -0.00000000  0.00000096  0.00000098  0.00000024  0.00000003  0.00000004  0.00000002     62.87
  43  -183.72810523  -183.72810523    -0.00000000  0.00000096  0.00000098  0.00000024  0.00000003  0.00000004  0.00000002     64.22
  44  -183.72810523  -183.72810523     0.00000000  0.00000096  0.00000098  0.00000024  0.00000003  0.00000004  0.00000002     65.51
  45  -183.72810523  -183.72810523    -0.00000000  0.00000096  0.00000098  0.00000024  0.00000003  0.00000004  0.00000002     66.81
  46  -183.72810523  -183.72810523     0.00000000  0.00000096  0.00000098  0.00000024  0.00000003  0.00000004  0.00000002     68.10
  47  -183.72810523  -183.72810523    -0.00000000  0.00000096  0.00000098  0.00000024  0.00000003  0.00000004  0.00000002     69.41
  48  -183.72810523  -183.72810523     0.00000000  0.00000096  0.00000098  0.00000024  0.00000003  0.00000004  0.00000002     70.77
  49  -183.72810523  -183.72810523     0.00000000  0.00000096  0.00000098  0.00000024  0.00000003  0.00000004  0.00000002     72.09
  50  -183.72810523  -183.72810523     0.00000000  0.00000096  0.00000098  0.00000024  0.00000003  0.00000004  0.00000002     73.44
  51  -183.72810523  -183.72810523    -0.00000000  0.00000096  0.00000098  0.00000024  0.00000003  0.00000004  0.00000002     74.91
  52  -183.72810523  -183.72810523    -0.00000000  0.00000096  0.00000098  0.00000024  0.00000003  0.00000004  0.00000002     76.29
  53  -183.72810523  -183.72810523     0.00000000  0.00000096  0.00000098  0.00000024  0.00000003  0.00000004  0.00000002     77.66
  54  -183.72810523  -183.72810523    -0.00000000  0.00000096  0.00000098  0.00000024  0.00000003  0.00000004  0.00000002     79.00
  55  -183.72810523  -183.72810523     0.00000000  0.00000096  0.00000098  0.00000024  0.00000003  0.00000004  0.00000002     80.43
  56  -183.72810523  -183.72810523    -0.00000000  0.00000096  0.00000098  0.00000024  0.00000003  0.00000004  0.00000002     81.83
  57  -183.72810523  -183.72810523     0.00000000  0.00000096  0.00000098  0.00000024  0.00000003  0.00000004  0.00000002     83.40
  58  -183.72810523  -183.72810523    -0.00000000  0.00000096  0.00000098  0.00000024  0.00000003  0.00000004  0.00000002     84.75
  59  -183.72810523  -183.72810523     0.00000000  0.00000096  0.00000098  0.00000024  0.00000003  0.00000004  0.00000002     86.02
  60  -183.72810523  -183.72810523    -0.00000000  0.00000096  0.00000098  0.00000024  0.00000003  0.00000004  0.00000002     87.38
  61  -183.72810523  -183.72810523     0.00000000  0.00000096  0.00000098  0.00000024  0.00000003  0.00000004  0.00000002     88.74
  62  -183.72810523  -183.72810523    -0.00000000  0.00000096  0.00000098  0.00000024  0.00000003  0.00000004  0.00000002     90.18
  63  -183.72810523  -183.72810523    -0.00000000  0.00000096  0.00000098  0.00000024  0.00000003  0.00000004  0.00000002     91.55
  64  -183.72810523  -183.72810523     0.00000000  0.00000096  0.00000098  0.00000024  0.00000003  0.00000004  0.00000002     92.89
  65  -183.72810523  -183.72810523    -0.00000000  0.00000096  0.00000098  0.00000024  0.00000003  0.00000004  0.00000002     94.25
  66  -183.72810523  -183.72810523     0.00000000  0.00000096  0.00000098  0.00000024  0.00000003  0.00000004  0.00000002     95.55
  67  -183.72810523  -183.72810523     0.00000000  0.00000096  0.00000098  0.00000024  0.00000003  0.00000004  0.00000002     96.93
  68  -183.72810523  -183.72810523     0.00000000  0.00000096  0.00000098  0.00000024  0.00000003  0.00000004  0.00000002     98.31
  69  -183.72810523  -183.72810523    -0.00000000  0.00000096  0.00000098  0.00000024  0.00000003  0.00000004  0.00000002     99.59
  70  -183.72810523  -183.72810523     0.00000000  0.00000096  0.00000098  0.00000024  0.00000003  0.00000004  0.00000002    100.92
  71  -183.72810523  -183.72810523    -0.00000000  0.00000096  0.00000098  0.00000024  0.00000003  0.00000004  0.00000002    102.22
  72  -183.72810523  -183.72810523    -0.00000000  0.00000096  0.00000098  0.00000024  0.00000003  0.00000004  0.00000002    103.60
  73  -183.72810523  -183.72810523     0.00000000  0.00000096  0.00000098  0.00000024  0.00000003  0.00000004  0.00000002    105.06
  74  -183.72810523  -183.72810523     0.00000000  0.00000096  0.00000098  0.00000024  0.00000003  0.00000004  0.00000002    106.49
  75  -183.72810523  -183.72810523    -0.00000000  0.00000096  0.00000098  0.00000024  0.00000003  0.00000004  0.00000002    107.82
  76  -183.72810523  -183.72810523    -0.00000000  0.00000096  0.00000098  0.00000024  0.00000003  0.00000004  0.00000002    109.19
  77  -183.72810523  -183.72810523    -0.00000000  0.00000096  0.00000098  0.00000024  0.00000003  0.00000004  0.00000002    110.56
  78  -183.72810523  -183.72810523     0.00000000  0.00000096  0.00000098  0.00000024  0.00000003  0.00000004  0.00000002    111.90
  79  -183.72810523  -183.72810523    -0.00000000  0.00000096  0.00000098  0.00000024  0.00000003  0.00000004  0.00000002    113.28
  80  -183.72810523  -183.72810523     0.00000000  0.00000096  0.00000098  0.00000024  0.00000003  0.00000004  0.00000002    114.66
  81  -183.72810523  -183.72810523    -0.00000000  0.00000096  0.00000098  0.00000024  0.00000003  0.00000004  0.00000002    116.06
  82  -183.72810523  -183.72810523     0.00000000  0.00000096  0.00000098  0.00000024  0.00000003  0.00000004  0.00000002    117.35
  83  -183.72810523  -183.72810523     0.00000000  0.00000096  0.00000098  0.00000024  0.00000003  0.00000004  0.00000002    118.67
  84  -183.72810523  -183.72810523    -0.00000000  0.00000096  0.00000098  0.00000024  0.00000003  0.00000004  0.00000002    120.05
  85  -183.72810523  -183.72810523     0.00000000  0.00000096  0.00000098  0.00000024  0.00000003  0.00000004  0.00000002    121.51
  86  -183.72810523  -183.72810523     0.00000000  0.00000096  0.00000098  0.00000024  0.00000003  0.00000004  0.00000002    122.94
  87  -183.72810523  -183.72810523    -0.00000000  0.00000096  0.00000098  0.00000024  0.00000003  0.00000004  0.00000002    124.35
  88  -183.72810523  -183.72810523     0.00000000  0.00000096  0.00000098  0.00000024  0.00000003  0.00000004  0.00000002    125.73
  89  -183.72810523  -183.72810523    -0.00000000  0.00000096  0.00000098  0.00000024  0.00000003  0.00000004  0.00000002    127.17
  90  -183.72810523  -183.72810523     0.00000000  0.00000096  0.00000098  0.00000024  0.00000003  0.00000004  0.00000002    128.52
  91  -183.72810523  -183.72810523    -0.00000000  0.00000096  0.00000098  0.00000024  0.00000003  0.00000004  0.00000002    129.91
  92  -183.72810523  -183.72810523     0.00000000  0.00000096  0.00000098  0.00000024  0.00000003  0.00000004  0.00000002    131.25
  93  -183.72810523  -183.72810523     0.00000000  0.00000096  0.00000098  0.00000024  0.00000003  0.00000004  0.00000002    132.53
  94  -183.72810523  -183.72810523    -0.00000000  0.00000096  0.00000098  0.00000024  0.00000003  0.00000004  0.00000002    133.91
  95  -183.72810523  -183.72810523     0.00000000  0.00000096  0.00000098  0.00000024  0.00000003  0.00000004  0.00000002    135.26
  96  -183.72810523  -183.72810523    -0.00000000  0.00000096  0.00000098  0.00000024  0.00000003  0.00000004  0.00000002    136.56
  97  -183.72810523  -183.72810523     0.00000000  0.00000096  0.00000098  0.00000024  0.00000003  0.00000004  0.00000002    138.02
  98  -183.72810523  -183.72810523     0.00000000  0.00000096  0.00000098  0.00000024  0.00000003  0.00000004  0.00000002    139.31
  99  -183.72810523  -183.72810523     0.00000000  0.00000096  0.00000098  0.00000024  0.00000003  0.00000004  0.00000002    140.69
 100  -183.72810523  -183.72810523     0.00000000  0.00000096  0.00000098  0.00000024  0.00000003  0.00000004  0.00000002    141.96

 END OF GEOMETRY OPTIMIZATION.

 Geometry written to block  1 of record 700

 Recomputing wavefunction for reoriented structure

 Current geometry (xyz format, in Angstrom)

    3
 HF-SCF000/6-311G(D,P)  ENERGY=-183.72810523
 N          0.0000000000        0.0000000000       -1.1649504824
 N          0.0000000000        0.0000000000       -0.0794181458
 O          0.0000000000        0.0000000000        1.0894078808

 **********************************************************************************************************************************


 **********************************************************************************************************************************
 DATASETS  * FILE   NREC   LENGTH (MB)   RECORD NAMES
              1      19       28.64       500      610      700      900      700(1)   950      970     1000      129      960   
                                          VAR    BASINP    GEOM    SYMINP    GEOM     ZMAT    AOBASIS   BASIS     P2S    ABASIS    
                                         1100     1400     1410     1200     1210     1080     1600     1650     1700   
                                           S        T        V       H0       H01     AOSYM     SMH    MOLCAS    OPER   

              2       5        0.41       700     1000      520     2100      700(1)
                                         GEOM     BASIS   MCVARS     RHF     GEOM   

 PROGRAMS   *        TOTAL      OPTG    HF-SCF       INT
 CPU TIMES  *       142.95    142.36      0.10      0.34
 REAL TIME  *        78.29 SEC
 DISK USED  *        29.15 MB (local),      201.16 MB (total)
 SF USED    *         0.04 MB
 GA USED    *         0.00 MB       (max)       0.00 MB       (current)
 **********************************************************************************************************************************


 PROGRAM * HESSIAN

 PROGRAM * MCKINLEY (Hessian of the energy)     Author: A. Bernhardsson, R. Lindh

 Orbitals from record         2100.2

 Number of closed-shell orbitals: 11 (  7  2  2  0 )
 Number of occupied orbitals:     11 (  7  2  2  0 )

 Number of electrons= 22     Singlet     Space symmetry=1      Wavefunction type: CLOSED          


 McKinley needed     10.37 seconds of CPU time

 Entering CPHF calculation

 CPHF needed  76 iterations for  9 perturbations.  Total CPU time:    5.02 sec


 HF-SCF hessian saved to record  5300.2

 PROGRAM * FREQUENCIES (Calculation of harmonic vibrational spectra for HF-SCF)


 Permanent Dipole Moment [debye]
 1-3    0.000000    0.000000    0.000000

 Dipole Moment Norm    0.0000000 [debye]

 Dipole Moment Derivatives [debye/ang]
              1             2             3             4             5             6             7             8
    1    0.00000000    0.00000000    0.00000000    0.00000000    0.00000000    0.00000000    0.00000000    0.00000000
    2    0.00000000    0.00000000    0.00000000    0.00000000    0.00000000    0.00000000    0.00000000    0.00000000
    3    0.00000000    0.00000000    0.00000000    0.00000000    0.00000000    0.00000000    0.00000000    0.00000000
              9
    1    0.00000000
    2    0.00000000
    3    0.00000000

 Projecting out rotations and translations

 Force Constants (Second Derivatives of the Energy) in [a.u.]
                             NX1         NY1         NZ1         NX2         NY2     
           NX1           0.0466402
           NY1           0.0000000   0.0466402
           NZ1           0.0000000   0.0000000   1.7230835
           NX2          -0.0899568   0.0000000   0.0000000   0.1735030
           NY2           0.0000000  -0.0899568   0.0000000   0.0000000   0.1735030
           NZ2           0.0000000   0.0000000  -1.5772411   0.0000000   0.0000000
           OX3           0.0433165   0.0000000   0.0000000  -0.0835462   0.0000000
           OY3           0.0000000   0.0433165   0.0000000   0.0000000  -0.0835462
           OZ3           0.0000000   0.0000000  -0.1458424   0.0000000   0.0000000
                             NZ2         OX3         OY3         OZ3     
           NZ2           2.2353568
           OX3           0.0000000   0.0402297
           OY3           0.0000000   0.0000000   0.0402297
           OZ3          -0.6581157   0.0000000   0.0000000   0.8039582


 Atomic Masses
 1-3   14.003070   14.003070   15.994910

 Mass weighted Second Derivative Matrix
                             NX1         NY1         NZ1         NX2         NY2     
           NX1           0.0033307
           NY1           0.0000000   0.0033307
           NZ1           0.0000000   0.0000000   0.1230504
           NX2          -0.0064241   0.0000000   0.0000000   0.0123904
           NY2           0.0000000  -0.0064241   0.0000000   0.0000000   0.0123904
           NZ2           0.0000000   0.0000000  -0.1126354   0.0000000   0.0000000
           OX3           0.0028944   0.0000000   0.0000000  -0.0055824   0.0000000
           OY3           0.0000000   0.0028944   0.0000000   0.0000000  -0.0055824
           OZ3           0.0000000   0.0000000  -0.0097450   0.0000000   0.0000000
                             NZ2         OX3         OY3         OZ3     
           NZ2           0.1596333
           OX3           0.0000000   0.0025152
           OY3           0.0000000   0.0000000   0.0025152
           OZ3          -0.0439744   0.0000000   0.0000000   0.0502634


 Mass Weighted 2nd Derivative Matrix Eigenvalues
 1-9    0.000000    0.000000    0.000000    0.000000    0.000000    0.018236    0.018236    0.073860    0.259087

 Mass Weighted 2nd Derivative Matrix Eigenvectors
              1             2             3             4             5             6             7             8
    1    0.01589553   -0.02557704    0.14931312    0.07958069    0.88759384    0.00000000   -0.42736732    0.00000000
    2    0.57284760   -0.54852946    0.07206910    0.42113684   -0.07594769   -0.42736732    0.00000000    0.00000000
    3   -0.19876615    0.13644397   -0.17859781    0.47769640   -0.00529419    0.00000000    0.00000000   -0.53785411
    4   -0.07131842    0.04016718    0.44657709    0.12927961    0.31260137    0.00000000    0.82427929    0.00000000
    5    0.51870448    0.07018037    0.03857605    0.20984534   -0.03257078    0.82427929    0.00000000    0.00000000
    6   -0.19876615    0.13644397   -0.17859781    0.47769640   -0.00529419    0.00000000    0.00000000   -0.30295919
    7   -0.17658481    0.11858508    0.81936349    0.19536032   -0.32758568    0.00000000   -0.37137694    0.00000000
    8    0.49206345    0.78699500    0.00268585   -0.01887288    0.01510632   -0.37137694    0.00000000    0.00000000
    9   -0.21243286    0.14582555   -0.19087779    0.51054172   -0.00565820    0.00000000    0.00000000    0.78672021
              9
    1    0.00000000
    2    0.00000000
    3   -0.62647343
    4    0.00000000
    5    0.00000000
    6    0.76809617
    7    0.00000000
    8    0.00000000
    9   -0.13251155

   Low Vibration      Wavenumber
        Nr             [1/cm] 
        1                0.00
        2                0.00
        3                0.00
        4                0.00
        5                0.00

     Vibration        Wavenumber
        Nr             [1/cm] 
        1              694.18
        2              694.18
        3             1397.04
        4             2616.54

 FREQUENCIES * CALCULATION OF NORMAL MODES FOR HF-SCF


 Atomic Coordinates

  Nr  Atom  Charge       X              Y              Z

   1   N     7.00    0.000000000    0.000000000   -2.201437361
   2   N     7.00    0.000000000    0.000000000   -0.150078545
   3   O     8.00    0.000000000    0.000000000    2.058682533

 Gradient norm at reference geometry: 0.25305D-06

 Normal Modes

                              1 B2        2 B1        3 A1        4 A1 
 Wavenumbers [cm-1]          694.18      694.18     1397.04     2616.54
 Intensities [km/mol]          0.00        0.00        0.00        0.00
 Intensities [relative]        0.00        0.00        0.00        0.00
           NX1             -0.00000    -0.11421    -0.00000    -0.00000
           NY1             -0.11421    -0.00000    -0.00000     0.00000
           NZ1              0.00000    -0.00000    -0.14373    -0.16741
           NX2             -0.00000     0.22027    -0.00000    -0.00000
           NY2              0.22027    -0.00000    -0.00000    -0.00000
           NZ2             -0.00000    -0.00000    -0.08096     0.20526
           OX3             -0.00000    -0.09286     0.00000    -0.00000
           OY3             -0.09286    -0.00000    -0.00000     0.00000
           OZ3             -0.00000    -0.00000     0.19671    -0.03313


 Normal Modes of low/zero frequencies

                                  1           2           3           4           5
 Wavenumbers [cm-1]            0.00        0.00        0.00        0.00        0.00
 Intensities [km/mol]          0.00        0.00        0.00        0.00        0.00
 Intensities [relative]        0.00        0.00        0.00        0.00        0.00
           NX1              0.00425    -0.00684     0.03990     0.02127     0.23719
           NY1              0.15308    -0.14658     0.01926     0.11254    -0.02030
           NZ1             -0.05312     0.03646    -0.04773     0.12766    -0.00141
           NX2             -0.01906     0.01073     0.11934     0.03455     0.08354
           NY2              0.13861     0.01875     0.01031     0.05608    -0.00870
           NZ2             -0.05312     0.03646    -0.04773     0.12766    -0.00141
           OX3             -0.04415     0.02965     0.20487     0.04885    -0.08191
           OY3              0.12304     0.19678     0.00067    -0.00472     0.00378
           OZ3             -0.05312     0.03646    -0.04773     0.12766    -0.00141


 Frequencies dumped to record   5400.2

 Zero point energy:  0.01230652 [H]     2700.97 [1/CM]       32.31 [KJ/MOL]
 Frequency information read from record  5400.2


 **********************************************************************************************************************************
 DATASETS  * FILE   NREC   LENGTH (MB)   RECORD NAMES
              1      19       28.64       500      610      700      900      700(1)   950      970     1000      129      960   
                                          VAR    BASINP    GEOM    SYMINP    GEOM     ZMAT    AOBASIS   BASIS     P2S    ABASIS    
                                         1100     1400     1410     1200     1210     1080     1600     1650     1700   
                                           S        T        V       H0       H01     AOSYM     SMH    MOLCAS    OPER   

              2       8        0.42       700     1000      520     2100      700(1)  5300     5450     5400   
                                         GEOM     BASIS   MCVARS     RHF     GEOM     HESS     NMOD     FREQ   

              4       5        0.09      4100     4000     4200     4300     4400   

 PROGRAMS   *        TOTAL      FREQ      OPTG    HF-SCF       INT
 CPU TIMES  *       158.36     15.40    142.36      0.10      0.34
 REAL TIME  *        86.28 SEC
 DISK USED  *        29.15 MB (local),      201.16 MB (total)
 SF USED    *         0.09 MB
 GA USED    *         0.00 MB       (max)       0.00 MB       (current)
 **********************************************************************************************************************************

 Dump information in style MOLDEN to formic_acid_dimer.molden                                                        

 Molecular orbitals read from record     2100.2  Type=RHF/CANONICAL  
 Occupation numbers read from record     2100.2  Type=RHF/RHF  
 Orbital energies read from record       2100.2  Type=RHF/CANONICAL  
 Redundancy group numbers read from rec  2100.2  Type=RHF/RHF  

 DUMP ORBITAL  1.1 AS ORBITAL    1  occ=    2.0000  eig=  -20.6427  GROUP=   2
 DUMP ORBITAL  2.1 AS ORBITAL    2  occ=    2.0000  eig=  -15.8359  GROUP=   2
 DUMP ORBITAL  3.1 AS ORBITAL    3  occ=    2.0000  eig=  -15.6852  GROUP=   2
 DUMP ORBITAL  4.1 AS ORBITAL    4  occ=    2.0000  eig=   -1.6355  GROUP=   2
 DUMP ORBITAL  5.1 AS ORBITAL    5  occ=    2.0000  eig=   -1.4533  GROUP=   2
 DUMP ORBITAL  6.1 AS ORBITAL    6  occ=    2.0000  eig=   -0.8230  GROUP=   2
 DUMP ORBITAL  1.3 AS ORBITAL    7  occ=    2.0000  eig=   -0.7795  GROUP=   2
 DUMP ORBITAL  1.2 AS ORBITAL    8  occ=    2.0000  eig=   -0.7795  GROUP=   2
 DUMP ORBITAL  7.1 AS ORBITAL    9  occ=    2.0000  eig=   -0.6960  GROUP=   2
 DUMP ORBITAL  2.3 AS ORBITAL   10  occ=    2.0000  eig=   -0.4924  GROUP=   2
 DUMP ORBITAL  2.2 AS ORBITAL   11  occ=    2.0000  eig=   -0.4924  GROUP=   2

 Total charge:      22.000000
 Frequency information read from record  5400.2

 **********************************************************************************************************************************

 HF/6-311G(D,P)//HF/6-311G(D,P) energy=   -183.728105231673

    OPTG(HF-SCF)          HF-SCF
   -183.72810523   -183.72563668
 **********************************************************************************************************************************
 Molpro calculation terminated with 1 warning(s)
