
 Working directory              : /tmp/lme/molpro.Hr3ReoAy8b/
 Global scratch directory       : /tmp/lme/molpro.Hr3ReoAy8b/
 Wavefunction directory         : /home/lme/wfu/
 Main file repository           : /tmp/lme/molpro.Hr3ReoAy8b/

 id        : liedlgroup

 Nodes     nprocs
 sv1-c724     6
 GA implementation: MPI file
 GA implementation (serial work in mppx): MPI file

 Using customized tuning parameters: mindgm=1; mindgv=20; mindgc=4; mindgr=1; noblas=0; minvec=7
 default implementation of scratch files=sf  


 Variables initialized (1025), CPU time= 0.01 sec
 memory, 200, m                                                                  ! Memory Requirements
 gthresh, optgrad=1.d-7,twoint=1.d-14,prefac=1.d-16                            ! Guntram Rezept um numerischen Schmutz zu entfernen
 orient,mass
 geometry = {
  H,    0.7493682,    0.0000000,    0.4424329
  O,    0.0000000,    0.0000000,   -0.1653507
  H,   -0.7493682,    0.0000000,    0.4424329
 }
 
 mass, iso
 basis=vdz
 
 {hf
 start,atden}
 
 CCSD
 
 optg
 {frequencies, symm=auto, print=0,analytical}
 put,molden,h2o_ccsd.molden
 Commands initialized (840), CPU time= 0.00 sec, 684 directives.
 Default parameters read. Elapsed time= 0.07 sec

 Checking input...
 Passed
1


                                         ***  PROGRAM SYSTEM MOLPRO  ***
                                       Copyright, TTI GmbH Stuttgart, 2015
                                    Version 2022.3 linked Wed Nov 30 12:40:34 2022


 **********************************************************************************************************************************
 LABEL *                                                                                 
  (6 PROC) 64 bit mpp version                                                            DATE: 27-Aug-25          TIME: 08:27:00  
 **********************************************************************************************************************************

 SHA1:             e31ec9a5ea85254ab76f59d122cbdd51c71cf98b
 **********************************************************************************************************************************

 Memory per process:       200 MW
 Total memory per node:   1200 MW

 GA preallocation disabled
 GA check disabled

 Variable memory set to 200.0 MW


 THRESHOLDS:

 ZERO    =  1.00D-12  ONEINT  =  1.00D-12  TWOINT  =  1.00D-14  PREFAC  =  1.00D-16  XXXXXX  =  1.00D-09  EORDER  =  1.00D-04
 ENERGY  =  0.00D+00  ETEST   =  0.00D+00  EDENS   =  0.00D+00  THRDEDEF=  1.00D-06  GRADIENT=  1.00D-05  STEP    =  1.00D-03
 ORBITAL =  1.00D-05  CIVEC   =  1.00D-05  COEFF   =  1.00D-04  PRINTCI =  5.00D-02  PUNCHCI =  9.90D+01  OPTGRAD =  1.00D-07
 OPTENERG=  1.00D-06  OPTSTEP =  3.00D-04  THRGRAD =  1.00D-10  COMPRESS=  1.00D-11  VARMIN  =  1.00D-07  VARMAX  =  1.00D-03
 THRDOUB =  0.00D+00  THRDIV  =  1.00D-05  THRRED  =  1.00D-07  THRPSP  =  1.00D+00  THRDC   =  1.00D-10  THRCS   =  1.00D-10
 THRNRM  =  1.00D-08  THREQ   =  0.00D+00  THRDE   =  1.00D+00  THRREF  =  1.00D-05  SPARFAC =  1.00D+00  THRDLP  =  1.00D-07
 THRDIA  =  1.00D-10  THRDLS  =  1.00D-07  THRGPS  =  0.00D+00  THRKEX  =  0.00D+00  THRDIS  =  2.00D-01  THRVAR  =  1.00D-10
 THRLOC  =  1.00D-06  THRGAP  =  1.00D-06  THRLOCT = -1.00D+00  THRGAPT = -1.00D+00  THRORB  =  1.00D-06  THRMLTP =  0.00D+00
 THRCPQCI=  1.00D-10  KEXTA   =  0.00D+00  THRCOARS=  0.00D+00  SYMTOL  =  1.00D-06  GRADTOL =  1.00D-06  THROVL  =  1.00D-08
 THRORTH =  1.00D-08  THRDLOVL= -1.00D+00  GRID    =  1.00D-06  GRIDMAX =  1.00D-03  DTMAX   =  0.00D+00  THROCCDE=  1.00D-01
 THROCCDE=  1.00D-01  THRPRINT=  2.50D-01

 ZCENTRE=MASS


 Geometry recognized as XYZ



 Using masses of most abundant isotopes

 **********************************************************************************************************************************
 SETTING BASIS          =    VDZ


 Recomputing integrals since basis changed


 Using spherical harmonics

 Library entry H      S cc-pVDZ              selected for orbital group  1
 Library entry H      P cc-pVDZ              selected for orbital group  1
 Library entry O      S cc-pVDZ              selected for orbital group  2
 Library entry O      P cc-pVDZ              selected for orbital group  2
 Library entry O      D cc-pVDZ              selected for orbital group  2


 PROGRAM * SEWARD (Integral evaluation for generally contracted gaussian basis sets)     Author: Roland Lindh, 1990

 Geometry written to block  1 of record 700

 Orientation using atomic masses  
 Molecule type: Asymmetric top,     Order of principal axis = 2
 Symmetry elements: X,Y
 Rotational constants:     281.8391796    764.2747781    446.4898054 GHz

 Point group  C2v 



 ATOMIC COORDINATES

 NR  ATOM    CHARGE       X              Y              Z

   1  H       1.00    0.000000000    1.416100665    1.020005300
   2  H       1.00    0.000000000   -1.416100665    1.020005300
   3  O       8.00    0.000000000    0.000000000   -0.128539247

 Bond lengths in Bohr (Angstrom)

 1-3  1.823319958  2-3  1.823319958
     ( 0.964859370)     ( 0.964859370)

 Bond angles

  1-3-2  101.91165288

 NUCLEAR CHARGE:                   10
 NUMBER OF PRIMITIVE AOS:          41
 NUMBER OF SYMMETRY AOS:           40
 NUMBER OF CONTRACTIONS:           24   (   11A1  +    4B1  +    7B2  +    2A2  )
 NUMBER OF INNER CORE ORBITALS:     0   (    0A1  +    0B1  +    0B2  +    0A2  )
 NUMBER OF OUTER CORE ORBITALS:     1   (    1A1  +    0B1  +    0B2  +    0A2  )
 NUMBER OF VALENCE ORBITALS:        6   (    3A1  +    1B1  +    2B2  +    0A2  )


 NUCLEAR REPULSION ENERGY    9.12828373

 Eigenvalues of metric

         1 0.175E-01 0.516E-01 0.160E+00 0.223E+00 0.525E+00 0.986E+00 0.101E+01 0.129E+01
         2 0.183E+00 0.527E+00 0.111E+01 0.224E+01
         3 0.460E-01 0.987E-01 0.172E+00 0.667E+00 0.101E+01 0.116E+01 0.253E+01
         4 0.628E+00 0.132E+01


 Contracted 2-electron integrals neglected if value below      1.0D-14
 AO integral compression algorithm  1   Integral accuracy      1.0D-14

     1.573 MB (compressed) written to integral file (100.0%)

     Node minimum: 0.262 MB, node maximum: 0.262 MB


 NUMBER OF SORTED TWO-ELECTRON INTEGRALS:       1968.     BUFFER LENGTH:  32768
 NUMBER OF SEGMENTS:   1  SEGMENT LENGTH:       1968      RECORD LENGTH: 524288

 Memory used in sort:       0.56 MW

 SORT1 READ       19080. AND WROTE        1838. INTEGRALS IN      1 RECORDS. CPU TIME:     0.01 SEC, REAL TIME:     0.01 SEC
 SORT2 READ       12665. AND WROTE       13826. INTEGRALS IN      6 RECORDS. CPU TIME:     0.00 SEC, REAL TIME:     0.00 SEC

 Node minimum:        1820.  Node maximum:        2659. integrals

 OPERATOR DM      FOR CENTER  0  COORDINATES:    0.000000    0.000000    0.000000


 **********************************************************************************************************************************
 DATASETS  * FILE   NREC   LENGTH (MB)   RECORD NAMES
              1      18       28.59       500      610      700      900      950      970     1000      129      960     1100   
                                          VAR    BASINP    GEOM    SYMINP    ZMAT    AOBASIS   BASIS     P2S    ABASIS      S 
                                         1400     1410     1200     1210     1080     1600     1650     1700   
                                           T        V       H0       H01     AOSYM     SMH    MOLCAS    OPER   

 PROGRAMS   *        TOTAL       INT
 CPU TIMES  *         0.46      0.31
 REAL TIME  *         0.60 SEC
 DISK USED  *        28.88 MB (local),      197.42 MB (total)
 GA USED    *         0.00 MB       (max)       0.00 MB       (current)
 **********************************************************************************************************************************


 Program * Restricted Hartree-Fock

 Orbital guess generated from atomic densities. Full valence occupancy:    4   1   2   0

 Initial occupancy:   3   1   1   0

 NELEC=   10   SYM=1   MS2= 0   THRE=1.0D-08   THRD=1.0D-06   THRG=1.0D-06  HFMA2=F  DIIS_START=2   DIIS_MAX=10   DIIS_INCORE=F

 Level shifts:    0.00 (CLOSED)    0.00 (OPEN)    0.30 (GAP_MIN)

 ITER           ETOT              DE          GRAD        DDIFF     DIIS  NEXP   TIME(IT)  TIME(TOT)  DIAG
   1      -75.98733880     -75.98733880     0.00D+00     0.41D+00     0     0       0.00      0.00    start
   2      -76.01731841      -0.02997961     0.37D-01     0.78D-01     1     0       0.00      0.00    diag
   3      -76.02597775      -0.00865934     0.20D-01     0.26D-01     2     0       0.00      0.00    diag
   4      -76.02619978      -0.00022203     0.22D-02     0.47D-02     3     0       0.00      0.00    diag
   5      -76.02621858      -0.00001880     0.61D-03     0.15D-02     4     0       0.00      0.00    diag
   6      -76.02621918      -0.00000060     0.96D-04     0.24D-03     5     0       0.00      0.00    diag
   7      -76.02621919      -0.00000001     0.14D-04     0.43D-04     6     0       0.00      0.00    diag
   8      -76.02621919      -0.00000000     0.11D-05     0.29D-05     7     0       0.00      0.00    fixocc
   9      -76.02621919      -0.00000000     0.15D-06     0.35D-06     8     0       0.00      0.00    diag
  10      -76.02621919      -0.00000000     0.37D-07     0.73D-07     0     0       0.01      0.01    diag/orth

 Final occupancy:   3   1   1   0

 !RHF STATE 1.1 Energy                -76.026219193002
  RHF One-electron energy            -123.024100846443
  RHF Two-electron energy              37.869597925450
  RHF Kinetic energy                   75.963641178513
  RHF Nuclear energy                    9.128283727990
  RHF Virial quotient                  -1.000823789033

 !RHF STATE 1.1 Dipole moment           0.00000000     0.00000000     0.82726822
 Dipole moment /Debye                   0.00000000     0.00000000     2.10270608

 Orbital energies:

           1.1          2.1          3.1          4.1          5.1
    -20.553187    -1.334931    -0.570501     0.183737     0.858695

           1.2          2.2          3.2
     -0.493557     1.199577     1.658624

           1.3          2.3          3.3
     -0.690276     0.255404     0.775321

           1.4          2.4
      1.483031     3.321673


 HOMO      1.2    -0.493557 =     -13.4304eV
 LUMO      4.1     0.183737 =       4.9997eV
 LUMO-HOMO         0.677295 =      18.4301eV

 Orbitals saved in record  2100.2


 **********************************************************************************************************************************
 DATASETS  * FILE   NREC   LENGTH (MB)   RECORD NAMES
              1      18       28.59       500      610      700      900      950      970     1000      129      960     1100   
                                          VAR    BASINP    GEOM    SYMINP    ZMAT    AOBASIS   BASIS     P2S    ABASIS      S 
                                         1400     1410     1200     1210     1080     1600     1650     1700   
                                           T        V       H0       H01     AOSYM     SMH    MOLCAS    OPER   

              2       4        0.38       700     1000      520     2100   
                                         GEOM     BASIS   MCVARS     RHF  

 PROGRAMS   *        TOTAL    HF-SCF       INT
 CPU TIMES  *         0.48      0.01      0.31
 REAL TIME  *         0.61 SEC
 DISK USED  *        29.02 MB (local),      198.30 MB (total)
 GA USED    *         0.00 MB       (max)       0.00 MB       (current)
 **********************************************************************************************************************************


 PROGRAM * CCSD (Closed-shell coupled cluster)     Authors: C. Hampel, H.-J. Werner, 1991, M. Deegan, P.J. Knowles, 1992


 Convergence thresholds:  THRVAR = 1.00D-12  THRDEN = 1.00D-08

 Using ITF CCSD gradient implementation

 Number of core orbitals:           1 (   1   0   0   0 )
 Number of closed-shell orbitals:   4 (   2   1   1   0 )
 Number of external orbitals:      19 (   8   3   6   2 )

 Molecular orbitals read from record     2100.2  Type=RHF/CANONICAL  

 Integral transformation finished. Total CPU:   0.00 sec, npass=  1  Memory used:   0.07 MW
  Reference energy                    -76.026219193002

  MP2 correlation energy               -0.202447308802
  MP2 total energy                    -76.228666501805

 ITER.      SQ.NORM     CORR.ENERGY   TOTAL ENERGY   ENERGY CHANGE        DEN1      VAR(S)    VAR(P)  DIIS     TIME
   1      1.05333054    -0.21097797   -76.23719716    -0.00853066    -0.00488610  3.01e-04  6.88e-04  1  1     0.01
   2      1.05595466    -0.21185246   -76.23807166    -0.00087450    -0.00321121  9.09e-06  9.66e-05  2  2     0.02
   3      1.05704930    -0.21198726   -76.23820645    -0.00013480    -0.00099854  9.25e-07  1.02e-05  3  3     0.03
   4      1.05748369    -0.21199015   -76.23820934    -0.00000289    -0.00037093  1.23e-08  5.76e-07  4  4     0.04
   5      1.05756627    -0.21198559   -76.23820478     0.00000457    -0.00006386  1.20e-08  2.49e-08  5  5     0.05
   6      1.05757427    -0.21198507   -76.23820426     0.00000052    -0.00000658  1.10e-11  1.09e-09  6  0     0.06
   7      1.05757439    -0.21198498   -76.23820417     0.00000009    -0.00000035  2.64e-12  6.58e-11  6  1     0.07
   8      1.05757450    -0.21198498   -76.23820417    -0.00000000    -0.00000009  3.03e-14  5.18e-12  6  2     0.08
   9      1.05757453    -0.21198498   -76.23820417     0.00000000    -0.00000002  7.16e-15  1.83e-13           0.09
 WARNING: Named clock 3265 does not exist. Cannot pop it.

 Norm of t1 vector:      0.02415170     S-energy:      0.00000000   T1 diagnostic:  0.00603792

 Time per iteration:                      0.01 sec

 RESULTS
 =======

  Reference energy                    -76.026219193002
  CCSD correlation energy              -0.211984979933
 !CCSD total energy                   -76.238204172936

 Starting CP-CCSD iterations.   Author: W. Gyorffy (2012)

 ITER.      NRM1           NRM2      VAR(S)+VAR(P)   DIIS    TIME
   1     0.00042987     0.16995887     7.58e-05      1  1    0.01
   2     0.00039935     0.16947199     2.84e-06      2  2    0.02
   3     0.00038458     0.16941956     3.39e-07      3  3    0.03
   4     0.00037716     0.16941469     4.06e-08      4  4    0.04
   5     0.00037439     0.16941875     6.61e-09      5  5    0.06
   6     0.00037319     0.16942007     5.70e-10      6  0    0.07
   7     0.00037284     0.16941946     3.72e-11      6  1    0.08
   8     0.00037276     0.16941892     1.30e-12      6  2    0.09
   9     0.00037275     0.16941878     4.18e-14              0.10

 WARNING: Named clock 3265 does not exist. Cannot pop it.

 Time per iteration:                      0.01 sec

 CPHF start vector      0.2 not found

 Starting Coupled-perturbed Hartree-Fock, convergence threshold= 1.0D-06

 ITER   MIC  DIIS      VAR         VARC       CPU
   1     0     1    0.13D-02    0.30D-03     0.00
   2     4     2    0.39D-04    0.39D-05     0.01
   3     3     3    0.50D-06    0.14D-06     0.01

 CPHF convergence reached in  3 macroiterations and    7 microiterations.   Accuracy: 4.9671D-07

 CPHF solution written to record  8500.2

 Dipole moments (unrelaxed):            0.00000000     0.00000000     0.77933283
 Orbital relaxation contribution:      -0.00000000    -0.00000000     0.00201995
 !CCSD STATE 1.1 Dipole moment          0.00000000     0.00000000     0.78135278
 Dipole moment /Debye                   0.00000000     0.00000000     1.98600067

 CPU-time for coupled-perturbed hartree-fock:          0.01 sec

 Number of N-1 electron functions:               4
 Number of N-2 electron functions:              10
 Number of singly external CSFs:                25
 Number of doubly external CSFs:               805
 Total number of CSFs:                         831

 CCSD gradient info saved on record        55555.1




 **********************************************************************************************************************************
 DATASETS  * FILE   NREC   LENGTH (MB)   RECORD NAMES
              1      20       28.75       500      610      700      900      950      970     1000      129      960     1100   
                                          VAR    BASINP    GEOM    SYMINP    ZMAT    AOBASIS   BASIS     P2S    ABASIS      S 
                                         1400     1410     1200     1210     1080     1600     1650     1700     1380    55555   
                                           T        V       H0       H01     AOSYM     SMH    MOLCAS    OPER     JKOP     CCSD   

              2       5        0.39       700     1000      520     2100     8500   
                                         GEOM     BASIS   MCVARS     RHF     CPHF   

 PROGRAMS   *        TOTAL      CCSD    HF-SCF       INT
 CPU TIMES  *         0.79      0.29      0.01      0.31
 REAL TIME  *         0.95 SEC
 DISK USED  *        29.17 MB (local),      199.19 MB (total)
 SF USED    *         0.87 MB
 GA USED    *         0.00 MB       (max)       0.00 MB       (current)
 **********************************************************************************************************************************


 PROGRAM * OPT (Geometry optimization)     Authors: F. Eckert and H.-J. Werner


 BFGS update of hessian

 *** Long output written to logfile /home/lme/overlap_integral_gaussian/molpro_files/h2o/ccsd/VDZ/h2o_vdz_ccsd.log ***


 Geometry optimization using default procedure for command CCSD

 Geometry written to block  1 of record 700

 Entering BMAT geometry-optimization, modelhes=F
 Optimization method: RF

 ITER.   ENERGY(OLD)    ENERGY(NEW)      DE          GRADMAX     GRADNORM    GRADRMS     STEPMAX     STEPLEN     STEPRMS   CPU-time
   1   -76.23820417   -76.23820598    -0.00000180  0.00047986  0.00083494  0.00027831  0.00230895  0.00377980  0.00218227      0.53
   2   -76.23820598   -76.23820611    -0.00000013  0.00030250  0.00037353  0.00012451  0.00062762  0.00097349  0.00056205      1.07
   3   -76.23820611   -76.23820611    -0.00000000  0.00002273  0.00003203  0.00001068  0.00002789  0.00003502  0.00002022      1.56
   4   -76.23820611   -76.23820611    -0.00000000  0.00000042  0.00000078  0.00000026  0.00000102  0.00000145  0.00000083      2.14
   5   -76.23820611   -76.23820611     0.00000000  0.00000003  0.00000004  0.00000001  0.00000009  0.00000017  0.00000010      2.65

 END OF GEOMETRY OPTIMIZATION.

 Geometry written to block  1 of record 700

 Recomputing wavefunction for reoriented structure

 Current geometry (xyz format, in Angstrom)

    3
 CCSD/VDZ  ENERGY=-76.23820611
 H          0.0000000000        0.7508100893        0.5382057722
 O          0.0000000000        0.0000000000       -0.0678237305
 H          0.0000000000       -0.7508100893        0.5382057722

 **********************************************************************************************************************************


 **********************************************************************************************************************************
 DATASETS  * FILE   NREC   LENGTH (MB)   RECORD NAMES
              1      20       28.75       500      610      700      900      950      970     1000      129      960     1100   
                                          VAR    BASINP    GEOM    SYMINP    ZMAT    AOBASIS   BASIS     P2S    ABASIS      S 
                                         1400     1410     1200     1210     1080     1600     1650     1700     1380    55555   
                                           T        V       H0       H01     AOSYM     SMH    MOLCAS    OPER     JKOP     CCSD   

              2       6        0.39       700     1000      520     2100     8500     9001   
                                         GEOM     BASIS   MCVARS     RHF     CPHF    DEN_MP2    

 PROGRAMS   *        TOTAL      OPTG      CCSD    HF-SCF       INT
 CPU TIMES  *         3.86      3.08      0.29      0.01      0.31
 REAL TIME  *         4.09 SEC
 DISK USED  *        29.18 MB (local),      199.24 MB (total)
 SF USED    *         0.88 MB
 GA USED    *         0.00 MB       (max)       0.00 MB       (current)
 **********************************************************************************************************************************


 PROGRAM * HESSIAN

 Computing numerical hessian using default procedure for command CCSD

 Symmetry elements for unique displacements: X  Y  

 Using AUTO symmetry option

 Running default procedure: HF-SCF000  CCSD


 Numerically approximating hessian using central gradient differences

 Task list generated. Total number of displacements:      9


 Switching to mppx mode, nproc=  6

 All   9 tasks completed.  CPU=      4.17 sec, Elapsed=      1.79 sec.

 Switching back to mpp mode, nproc=  6


 CCSD hessian saved to record  5300.2

 PROGRAM * FREQUENCIES (Calculation of harmonic vibrational spectra for CCSD)


 Permanent Dipole Moment [debye]
 1-3    0.000000    0.000000    1.982510

 Dipole Moment Norm    1.9825097 [debye]

 Dipole Moment Derivatives [debye/ang]
              1             2             3             4             5             6             7             8
    1    1.63560364    0.00000000    0.00000000   -3.27115058    0.00000000    0.00000000    1.63560364    0.00000000
    2    0.00000000    0.98911857   -0.52184940    0.00000000   -1.97820785    0.00000000    0.00000000    0.98911857
    3    0.00000000   -0.30198417    0.74883200    0.00000000    0.00000000   -1.49769098    0.00000000    0.30198417
              9
    1    0.00000000
    2    0.52184940
    3    0.74883200

 Projecting out rotations and translations

 Force Constants (Second Derivatives of the Energy) in [a.u.]
                             HX1         HY1         HZ1         OX2         OY2     
           HX1           0.0000000
           HY1           0.0000000   0.3690613
           HZ1           0.0000000   0.2375550   0.2292791
           OX2          -0.0000000   0.0000000   0.0000000   0.0000000
           OY2           0.0000000  -0.3348464  -0.2702771   0.0000000   0.6696928
           OZ2           0.0000000  -0.2048329  -0.2403992   0.0000000   0.0000000
           HX3          -0.0000000   0.0000000   0.0000000  -0.0000000   0.0000000
           HY3           0.0000000  -0.0342149   0.0327221   0.0000000  -0.3348464
           HZ3           0.0000000  -0.0327221   0.0111201   0.0000000   0.2702771
                             OZ2         HX3         HY3         HZ3     
           OZ2           0.4807984
           HX3           0.0000000   0.0000000
           HY3           0.2048329   0.0000000   0.3690613
           HZ3          -0.2403992   0.0000000  -0.2375550   0.2292791


 Atomic Masses
 1-3    1.007825   15.994910    1.007825

 Mass weighted Second Derivative Matrix
                             HX1         HY1         HZ1         OX2         OY2     
           HX1           0.0000000
           HY1           0.0000000   0.3661958
           HZ1           0.0000000   0.2357106   0.2274989
           OX2          -0.0000000   0.0000000   0.0000000   0.0000000
           OY2           0.0000000  -0.0833993  -0.0673172   0.0000000   0.0418691
           OZ2           0.0000000  -0.0510172  -0.0598756   0.0000000   0.0000000
           HX3          -0.0000000   0.0000000   0.0000000  -0.0000000   0.0000000
           HY3           0.0000000  -0.0339493   0.0324681   0.0000000  -0.0833993
           HZ3           0.0000000  -0.0324681   0.0110338   0.0000000   0.0673172
                             OZ2         HX3         HY3         HZ3     
           OZ2           0.0300595
           HX3           0.0000000   0.0000000
           HY3           0.0510172   0.0000000   0.3661958
           HZ3          -0.0598756   0.0000000  -0.2357106   0.2274989


 Mass Weighted 2nd Derivative Matrix Eigenvalues
 1-9    0.000000    0.000000    0.000000    0.000000    0.000000    0.000000    0.108892    0.559845    0.590581

 Mass Weighted 2nd Derivative Matrix Eigenvectors
              1             2             3             4             5             6             7             8
    1    0.00000000    0.00000000    1.00000000    0.00000000    0.00000000    0.00000000    0.00000000    0.00000000
    2    0.29770009   -0.03266328    0.00000000    0.27953995   -0.13015158   -0.18422200   -0.42079617    0.56826981
    3   -0.06576770    0.05222692    0.00000000   -0.39669129    0.09803448    0.44571862    0.53552763    0.39655102
    4    0.10283034    0.10404500    0.00000000    0.43857848    0.86304072    0.20349494    0.00000000    0.00000000
    5    0.88260988    0.05712861    0.00000000   -0.37527310    0.07169906    0.02950677    0.00000000    0.00000000
    6    0.11383923   -0.02392553    0.00000000    0.26426482   -0.34064583    0.82986615   -0.26885217   -0.19908142
    7   -0.02795143    0.98810452    0.00000000    0.05577770   -0.13454747   -0.04066948    0.00000000    0.00000000
    8    0.29770009   -0.03266328    0.00000000    0.27953995   -0.13015158   -0.18422200    0.42079617   -0.56826981
    9    0.12291867   -0.06423832    0.00000000    0.52936076   -0.26904968   -0.02909901    0.53552763    0.39655102
              9
    1    0.00000000
    2    0.53036592
    3    0.42809413
    4    0.00000000
    5   -0.26626082
    6    0.00000000
    7    0.00000000
    8    0.53036592
    9   -0.42809413

   Low Vibration      Wavenumber
        Nr             [1/cm] 
        1                0.00
        2                0.00
        3                0.00
        4                0.00
        5                0.00
        6                0.00

     Vibration        Wavenumber
        Nr             [1/cm] 
        1             1696.30
        2             3846.26
        3             3950.43

 FREQUENCIES * CALCULATION OF NORMAL MODES FOR CCSD


 Atomic Coordinates

  Nr  Atom  Charge       X              Y              Z

   1   H     1.00    0.000000000    1.418825440    1.017061508
   2   O     8.00    0.000000000    0.000000000   -0.128168275
   3   H     1.00    0.000000000   -1.418825440    1.017061508

 Gradient norm at reference geometry: 0.77063D-07

 Normal Modes

                              1 A1        2 A1        3 B2 
 Wavenumbers [cm-1]         1696.30     3846.26     3950.43
 Intensities [km/mol]         56.15        4.44       22.63
 Intensities [relative]      100.00        7.91       40.29
           HX1              0.00000     0.00000    -0.00000
           HY1             -0.41916     0.56606     0.52830
           HZ1              0.53344     0.39501     0.42643
           OX2              0.00000    -0.00000    -0.00000
           OY2             -0.00000    -0.00000    -0.06658
           OZ2             -0.06722    -0.04978     0.00000
           HX3              0.00000    -0.00000    -0.00000
           HY3              0.41916    -0.56606     0.52830
           HZ3              0.53344     0.39501    -0.42643


 Normal Modes of low/zero frequencies

                                  1           2           3           4           5
 Wavenumbers [cm-1]            0.00        0.00        0.00        0.00        0.00
 Intensities [km/mol]          0.00        0.00        0.00        0.00        0.00
 Intensities [relative]        0.00        0.00        0.00        0.00        0.00
           HX1             -0.00000     0.00000     0.99611    -0.00000    -0.00000
           HY1              0.29654    -0.03254     0.00000     0.27845    -0.12965
           HZ1             -0.06551     0.05202    -0.00000    -0.39515     0.09765
           OX2              0.02571     0.02602    -0.00000     0.10966     0.21579
           OY2              0.22069     0.01428    -0.00000    -0.09383     0.01793
           OZ2              0.02846    -0.00598     0.00000     0.06608    -0.08518
           HX3             -0.02784     0.98426    -0.00000     0.05556    -0.13402
           HY3              0.29654    -0.03254     0.00000     0.27845    -0.12965
           HZ3              0.12244    -0.06399     0.00000     0.52730    -0.26800

                                  6
 Wavenumbers [cm-1]            0.00
 Intensities [km/mol]          0.00
 Intensities [relative]        0.00
           HX1             -0.00000
           HY1             -0.18351
           HZ1              0.44398
           OX2              0.05088
           OY2              0.00738
           OZ2              0.20750
           HX3             -0.04051
           HY3             -0.18351
           HZ3             -0.02899


 Frequencies dumped to record   5400.2

 Zero point energy:  0.02162661 [H]     4746.49 [1/CM]       56.78 [KJ/MOL]
 Frequency information read from record  5400.2

 Recomputing wavefunction at initial geometry


 **********************************************************************************************************************************
 DATASETS  * FILE   NREC   LENGTH (MB)   RECORD NAMES
              1      20       28.75       500      610      700      900      950      970     1000      129      960     1100   
                                          VAR    BASINP    GEOM    SYMINP    ZMAT    AOBASIS   BASIS     P2S    ABASIS      S 
                                         1400     1410     1200     1210     1080     1600     1650     1700     1380    55555   
                                           T        V       H0       H01     AOSYM     SMH    MOLCAS    OPER     JKOP     CCSD   

              2       9        0.40       700     1000      520     2100     8500     9001     5300     5450     5400   
                                         GEOM     BASIS   MCVARS     RHF     CPHF    DEN_MP2   HESS     NMOD     FREQ   

 PROGRAMS   *        TOTAL      FREQ      OPTG      CCSD    HF-SCF       INT
 CPU TIMES  *         8.25      4.39      3.08      0.29      0.01      0.31
 REAL TIME  *         6.27 SEC
 DISK USED  *        34.20 MB (local),      228.62 MB (total)
 SF USED    *         0.88 MB
 GA USED    *         0.00 MB       (max)       0.00 MB       (current)
 **********************************************************************************************************************************

 Dump information in style MOLDEN to h2o_ccsd.molden                                                                 

 Molecular orbitals read from record     2100.2  Type=RHF/CANONICAL (state 1.1)
 Occupation numbers read from record     2100.2  Type=RHF/RHF (state 1.1)
 Orbital energies read from record       2100.2  Type=RHF/CANONICAL (state 1.1)
 Redundancy group numbers read from rec  2100.2  Type=RHF/RHF (state 1.1)

 DUMP ORBITAL  1.1 AS ORBITAL    1  occ=    2.0000  eig=  -20.5530  GROUP=   2
 DUMP ORBITAL  2.1 AS ORBITAL    2  occ=    2.0000  eig=   -1.3347  GROUP=   2
 DUMP ORBITAL  1.3 AS ORBITAL    3  occ=    2.0000  eig=   -0.6908  GROUP=   2
 DUMP ORBITAL  3.1 AS ORBITAL    4  occ=    2.0000  eig=   -0.5699  GROUP=   2
 DUMP ORBITAL  1.2 AS ORBITAL    5  occ=    2.0000  eig=   -0.4935  GROUP=   2

 Total charge:      10.000000
 Frequency information read from record  5400.2

 **********************************************************************************************************************************

 CCSD/cc-pVDZ energy=    -76.238206110362

      OPTG(CCSD)            CCSD          HF-SCF
    -76.23820611    -76.23820417    -76.02621919
 **********************************************************************************************************************************
 Molpro calculation terminated
