[Molden Format]
[Molpro variables]
_NUMVAR=  1041.000000000000    
_AVOGAD= 0.6022140760000000E+24
_BOLTZ= 0.1380649000000000E-22
_CLIGHTSI=  299792458.0000000    
_JOULE= 0.4359744722207100E-17
_JPCAL=  4.184000000000000    
_PLANCK= 0.6626070150000000E-33
_BOHR= 0.5291772109030000E-10
_ECHARG= 0.1602176634000000E-18
_ENULL= 0.8854187812800001E-11
_MU= 0.1660539066600000E-26
_EMASS= 0.9109383701500001E-30
_AMU2AU=  1822.888486217313    
_CLIGHT=  29979245800.00000    
_EV= 0.3674932217565494E-01
_KJOULE= 0.3808798847133432E-03
_KJOULE/MOL= 0.3808798847133432E-03
_CM= 0.4556335252912009E-05
_CM-1= 0.4556335252912009E-05
_DEB2SI= 0.3335640951981520E-29
_KCAL= 0.1593601437640628E-02
_KCAL/MOL= 0.1593601437640628E-02
_KELVIN= 0.3166811563455608E-05
_HERTZ= 0.1519829846057038E-15
_HZ= 0.1519829846057038E-15
_TOA= 0.5291772109030000    
_TOANG= 0.5291772109030000    
_TORAD= 0.1745329251994330E-01
_TOCM=  219474.6313631965    
_TODEBYE=  2.541746473194078    
_TOE= 0.4803204712570263E-09
_TOEV=  27.21138624598803    
_TOHERTZ=  6579683920501656.    
_TOHZ=  6579683920501656.    
_TOK=  315775.0248040668    
_TOKCAL=  627.5094740630558    
_TOKELVIN=  315775.0248040668    
_TOKJ=  2625.499639479825    
_TOKJOULE=  2625.499639479825    
_TOKG= 0.1660539066600000E-26
_ANG=  1.889726124625770    
_ANGSTROM=  1.889726124625770    
_RPAREF=  0.000000000000000    
_RPADISS=  0.000000000000000    
_IGNORE_UNDEF=  2.000000000000000    
_STRICTCHECK=  0.000000000000000    
!SEWARD=  0.000000000000000    
!MULTI=  0.000000000000000    
!DFMULTI=  0.000000000000000    
_SEW_ONEEL=  0.000000000000000    
_CPPDONE=FALSE
_DKROLL_DONE=  0.000000000000000    
_FNUC_DONE=  0.000000000000000    
_FOCKDONE=TRUE
_GRADONE=FALSE
_HESSDONE=TRUE
_INTDONE=TRUE
_SCFDONE=TRUE
_MODUL_BLOCK=FALSE
_MODUL_SLATER=FALSE
_MODUL_MRCC=FALSE
_MODUL_NBO6=FALSE
_MODUL_NECI=FALSE
_MODUL_AIMS=TRUE
_MODUL_HDF5=FALSE
_MODUL_GECCO=FALSE
_ISWINDOWS=FALSE
_MRCC_EXEC=
_FITC_AO_SAVED=FALSE
_FITC_MO_SAVED=FALSE
_SHARED_FS=TRUE
_LSTYP=SEWARD
_INTYP=INTS
_GEOMTYP=ZMAT
_GRADTYP=ALASKA
_DIRECT=FALSE
_DKHO= -1.000000000000000    
_FNUC=  0.000000000000000    
_SYNCM=  0.000000000000000    
_BASIS=VDZ
_ZCENTRE=MASS
_ZORIENT=  1.000000000000000    
_NELEC=  10.00000000000000    
!SPIN=  0.000000000000000    
_OPTCONV= 0.1746766419975100E-06
_QSDSTEP=  0.000000000000000    
_QSDIRC=  0.000000000000000    
_PROGRAM=FREQ
_CPUSTEP=  0.000000000000000    
_SYSSTEP=  0.000000000000000    
_WALLSTEP=  0.000000000000000    
!DFMP2=  0.000000000000000    
!DFSCF=  0.000000000000000    
!SCSGRD=  0.000000000000000    
_NCEN=  3.000000000000000    
_CPUTOT=  8.250000000000000    
_CPUCCSD=  0.000000000000000    
_SYSCCSD=  0.000000000000000    
_WALLCCSD=  0.000000000000000    
_CPUF12=  0.000000000000000    
_SYSF12=  0.000000000000000    
_WALLF12=  0.000000000000000    
_CPUF12B=  0.000000000000000    
_SYSF12B=  0.000000000000000    
_WALLF12B=  0.000000000000000    
_CPUTRANS=  0.000000000000000    
_SYSTRANS=  0.000000000000000    
_WALLTRANS=  0.000000000000000    
_DFTEXFAC=  1.000000000000000    
_DMX=  0.000000000000000    
_DMY=  0.000000000000000    
_DMZ= 0.7799792862179327    
_DMX_SCF=  0.000000000000000    
_DMY_SCF=  0.000000000000000    
_DMZ_SCF= 0.8257018523186805    
_FREQUENCIES= 0.5079039653365232E-04
_HOMO=  1.200000000000000    
_EHOMO=-0.4934588133139572    
_LUMO=  4.100000000000000    
_ELUMO= 0.1837947553449163    
_ENERGC= -76.23820611036174    
_ENERGR= -76.02624665841438    
_ENERGY= -76.23820611036174    
_ENERGY_METHOD=CCSD
_ENERGY_BASIS=cc-pVDZ
_GEOMETRY_METHOD=
_GEOMETRY_BASIS=
_ENUC=  9.127445674823555    
_FREQSTEP=  10.00000000000000    
_GRADENERG= -76.23817262687849    
_GRADEXFAC=  9999.000000000000    
_GRADMETHOD=  12.00000000000000    
_NMRMETHOD=  0.000000000000000    
_NMRMAGNET=  0.000000000000000    
_GRADRECORD=TRUE
_VIRIAL=-0.1363384146898178E-03
!GRID_FREEZE= -1.000000000000000    
!NEESE_INDEX=  0.000000000000000    
_ITERATIONS=  9.000000000000000    
_LASTNELEC=  10.00000000000000    
_LASTSPIN=  0.000000000000000    
_LASTSYM=  1.000000000000000    
_MPP_PROG=  1.000000000000000    
_MSNSTATES=  0.000000000000000    
_RS2PHASE=  0.000000000000000    
_IPROC_MPP=  0.000000000000000    
_IPROC_MPPX=  0.000000000000000    
_NPROC_MPP=  6.000000000000000    
_NPROC_MPPX=  6.000000000000000    
_NPROC_SMP=  6.000000000000000    
_NUMSTEP=  0.000000000000000    
_OPTCONVMX= 0.9459787541914521E-07
_OPTCONVRMS= 0.1008496062139037E-06
_OPTGRAD= 0.4078015208424269E-07
_OPTGRADMX= 0.3257573499837462E-07
_OPTGRADRMS= 0.1359338402808090E-07
_OPTSTEP=  5.000000000000000    
_ORBITAL=  2100.200000000000    
_PI=  3.141592653589793    
_SEIG_MIN= 0.1755816381576707E-01
_SEWPROP=TRUE
_STATUS= -1.000000000000000    
_SYSTOT= 0.7800000000000000    
_VERSION=  2022003.000000000    
_WALLTOT=  6.270000000000000    
_ZPE= 0.2162660545683154E-01
_DATE=27-Aug-25
_LASTORB=0
_METHODC=CCSD
_OUTPUT=/home/lme/overlap_integral_gaussian/molpro_files/h2o/ccsd/VDZ/h2o_vdz_ccsd.out
_PGROUP=C2v
_TIME=08:27:00
_LIBMOL=/usr/local/molpro/molpro_2022.3.0_sockets/lib/
_VIGRDC=  0.000000000000000    
!VIBCNT=  0.000000000000000    
!RGHFCNT=  0.000000000000000    
!SURFREC=  0.000000000000000    
!XSURFREC=  0.000000000000000    
!XPOLYREC=  0.000000000000000    
!ROTREC=  0.000000000000000    
!POLYREC=  0.000000000000000    
!DIPREC=  0.000000000000000    
!DIP4DREC=  0.000000000000000    
!DIPROT=  0.000000000000000    
!DIP4DROT=  0.000000000000000    
!PTREC=  0.000000000000000    
!PT4DREC=  0.000000000000000    
!VSCFREC=  0.000000000000000    
!VCIREC=  0.000000000000000    
!PVCIREC=  0.000000000000000    
!VMP2REC=  0.000000000000000    
!VMCSCFREC=  0.000000000000000    
!VMRCIREC=  0.000000000000000    
!VIBSTATEREC=  0.000000000000000    
!VIBSTATECNT=  0.000000000000000    
!VIBINFO=  0.000000000000000    
!GAREC=  0.000000000000000    
!SCFORB=  21002.00000000000    
!CIOCC=  3.000000000000000    
!CICORE=  1.000000000000000    
!DEFCORE=  1.000000000000000    
!SCORE=  0.000000000000000    
!CICLOS=  3.000000000000000    
!CIISTSYM=  1.000000000000000    
!CIISTMS2=  0.000000000000000    
!CIISTNEL=  8.000000000000000    
!NEWMOL= -1.000000000000000    
!NEWSYM= -1.000000000000000    
_SLFILES=slscratch
_NGSSTO=  9.000000000000000    
_SIN=SIN
_COS=COS
_TAN=TAN
_ACOS=ACOS
_ASIN=ASIN
_ATAN=ATAN
_COSH=COSH
_SINH=SINH
_TANH=TANH
_ABS=ABS
_MOD=MOD
_ERF=ERF
_REFC=REFC
_ERFC=ERFC
_HYPOT=HYPOT
_J0=J0
_J1=J1
_JN=JN
_GAMMA=GAMMA
_LGAMMA=LGAMMA
_Y0=Y0
_Y1=Y1
_YN=YN
_EXP=EXP
_LOG=LOG
_LOG10=LOG10
_SQRT=SQRT
_INT=INT
_NINT=NINT
_MAX=MAX
_MIN=MIN
_COSMO=  0.000000000000000    
_COSMOIT=  0.000000000000000    
_COSMOES=  0.000000000000000    
_COSMOEDS=  0.000000000000000    
_COSMOEC=  0.000000000000000    
_COSMOEDCORR=  0.000000000000000    
_FEPSI=  1.000000000000000    
_SL_IsMM=  0.000000000000000    
_SL_NSYM=  4.000000000000000    
_SL_System_BitSw=  0.000000000000000    
_SL_Unique_atoms=  0.000000000000000    
_SL_GRAD=  0.000000000000000    
_SL_MAXUPD_Hess=  5.000000000000000    
_SL_N_PRINT_COD=  5.000000000000000    
_SL_PRINT_CODES=  0.000000000000000    
_SL_BasType=  0.000000000000000    
_SL_Energy_Pred=  0.000000000000000    
_SL_New_Coords=  0.000000000000000    
_SL_Total_Nuclea=  0.000000000000000    
_SL_Highest_Mltp=  0.000000000000000    
_SL_Ref_Geom=  0.000000000000000    
_SL_Symmetry_ope=  4.000000000000000    
_SL_agrad=  0.000000000000000    
_SL_GrdMax=  0.000000000000000    
_SL_GrdNorm=  0.000000000000000    
_SL_GrdRMS=  0.000000000000000    
_SL_Hss_Q=  0.000000000000000    
_SL_Hss_X=  0.000000000000000    
_SL_BMxOld=  0.000000000000000    
_SL_KtB=  0.000000000000000    
_SL_TROld=  0.000000000000000    
_SL_No_of_Intern=  0.000000000000000    
_SL_Hess=  0.000000000000000    
_SL_K=  0.000000000000000    
!LATTICE= -1.000000000000000    
!NEWLATTICE=  0.000000000000000    
!LATGRAD_VAR=FALSE
!SEW_LATTICE=  1.000000000000000    
!AIC_ONEEL=  0.000000000000000    
!LOCAL=  0.000000000000000    
!SAVEDOM= -1.000000000000000    
!RESTDOM= -1.000000000000000    
!SAVEDOM_HF= -1.000000000000000    
!RESTDOM_HF= -1.000000000000000    
!HESSREC=  5300.200000000000    
!FREQREC=  5400.200000000000    
!NMODREC=  5450.200000000000    
!GTASKS=  0.000000000000000    
!HTASKS=  0.000000000000000    
!SAVEDOM_EOM= -1.000000000000000    
!RESTDOM_EOM= -1.000000000000000    
!GRADSTATE= -1.000000000000000    
!DEBUG=  0.000000000000000    
!CFIT_CPHF=  0.000000000000000    
!RDOMAUX_CPHF=  0.000000000000000    
!THRAO_CPHF= 0.1000000000000000E-11
!THRMO_CPHF= 0.1000000000000000E-11
!THROV_CPHF= 0.1000000000000000E-11
!THRSW_CPHF= 0.1000000000000000E-11
!THRPROD_CPHF= 0.1000000000000000E-11
!THRAOPR_CPHF= 0.1000000000000000E-11
!CFIT_SCFGRD=  0.000000000000000    
!RDOMAUX_SCFGRD=  0.000000000000000    
!THRAO_SCFGRD= 0.1000000000000000E-11
!THRMO_SCFGRD= 0.1000000000000000E-11
!THROV_SCFGRD= 0.1000000000000000E-11
!THRSW_SCFGRD= 0.1000000000000000E-11
!THRPROD_SCFGRD= 0.1000000000000000E-11
!THRAOPR_SCFGRD= 0.1000000000000000E-11
!LOCFIT_SCF=  0.000000000000000    
!LOCFIT_MP2=  0.000000000000000    
_RIDOM=  0.000000000000000    
!CC2_METHOD=  0.000000000000000    
_BASIS2006=FALSE
_SVDDEL= -1.000000000000000    
_SVDDELA= -1.000000000000000    
_SVDDELP= -1.000000000000000    
_SVDDELF= -1.000000000000000    
_SVDDELS= -1.000000000000000    
_SVDDEL_ABS= -1.000000000000000    
_SVDDELA_ABS= -1.000000000000000    
_SVDDELP_ABS= -1.000000000000000    
_SVDDELF_ABS= -1.000000000000000    
_SVDDELS_ABS= -1.000000000000000    
_MAXBASIS=  0.000000000000000    
!OPT_CONICAL=  0.000000000000000    
!CLEARSP_JGRID=  0.000000000000000    
_GRDHYBR=  0.000000000000000    
_STATEGRAD=  1.000000000000000    
_4EXT_NDISKS=  1.000000000000000    
!EMBEDFLAG=  1.000000000000000    
!EMBED=FALSE
!EMBED_F12=FALSE
!EMBEDNUC=  0.000000000000000    
_EMBEDENERGY=  0.000000000000000    
!EMBED_DFC=FALSE
!NUM_VOIDS=  0.000000000000000    
_IBODY=  0.000000000000000    
_EMBE_CORR=  0.000000000000000    
!EMBED_PROJ=FALSE
!EMB_PROJ_ZMU=  1000000.000000000    
!CORRECTION_HF=  0.000000000000000    
!EMBED_AORB=  0.000000000000000    
!EMBED_NACORR=  0.000000000000000    
!EMBED_MP2=FALSE
!EMBED_TRUNC_PERTURBATION=FALSE
!EMBED_FROZEN=  0.000000000000000    
!EMBED_ACTIVE=  0.000000000000000    
_CHANGE_BASIS=FALSE
_RESTORE_BASIS=FALSE
_FIX_EMBED_GUESS=FALSE
_EMBED_SCF=FALSE
_HUZINAGA_T=FALSE
_HUZINAGA_F=FALSE
_HUZINAGA=FALSE
_HUZINAGA_CORRECT=FALSE
!FASTLATGRAD=  1.000000000000000    
!FASTVLAMBDA= -1.000000000000000    
!IFORCE= -1.000000000000000    
!USESYM= -1.000000000000000    
_SINDEX=  0.000000000000000    
_AVDOM_OSV=  0.000000000000000    
_AVDOM_PNO=  0.000000000000000    
_AVDOM_PAO=  0.000000000000000    
_AVDOM_LMO=  0.000000000000000    
!CPP_PROG=CCSD-GRAD
_CC2OSV_FLAG=  0.000000000000000    
_EOMCCSD_CONV=FALSE
_TMADC2_FLAG=FALSE
_PROPADC2_FLAG=FALSE
_LEN_VirQ=  0.000000000000000    
_GRDCC2LR_FLAG=FALSE
_GRDADC2_FLAG=FALSE
_RO_VGLOBAL=  0.000000000000000    
_OPT=FALSE
_FREQ=FALSE
_HESS=FALSE
_CMRCC_callName=EMPTY
_CMRCC_callCount=  0.000000000000000    
_GECCO_CIROOT=  1.000000000000000    
_SYM_CATION=  2.000000000000000    
_MON_A=FALSE
_MON_B=FALSE
GX1=  0.000000000000000    
GY1= 0.7508100893438995    
GZ1= 0.5382057722452216    
GX2=  0.000000000000000    
GY2=  0.000000000000000    
GZ2=-0.6782373047588768E-01
GX3=  0.000000000000000    
GY3=-0.7508100893438995    
GZ3= 0.5382057722452216    
HX1=  0.000000000000000    
HY1=  1.418825440465775    
HZ1=  1.017061508236182    
OX2=  0.000000000000000    
OY2=  0.000000000000000    
OZ2=-0.1281682753498620    
HX3=  0.000000000000000    
HY3= -1.418825440465775    
HZ3=  1.017061508236182    
[Atoms] Angs
H     1    1         0.0000000000        0.7508100893        0.5382057722
O     2    8         0.0000000000        0.0000000000       -0.0678237305
H     3    1         0.0000000000       -0.7508100893        0.5382057722
[GTO]
   1 0
 s    4  1.00
  0.1301000000D+02  0.1968498999D-01
  0.1962000000D+01  0.1379769298D+00
  0.4446000000D+00  0.4781477569D+00
  0.1220000000D+00  0.5012397451D+00
 s    4  1.00
  0.1301000000D+02  0.0000000000D+00
  0.1962000000D+01  0.0000000000D+00
  0.4446000000D+00  0.0000000000D+00
  0.1220000000D+00  0.1000000000D+01
 p    1  1.00
  0.7270000000D+00  0.1000000000D+01
  
   3 0
 s    4  1.00
  0.1301000000D+02  0.1968498999D-01
  0.1962000000D+01  0.1379769298D+00
  0.4446000000D+00  0.4781477569D+00
  0.1220000000D+00  0.5012397451D+00
 s    4  1.00
  0.1301000000D+02  0.0000000000D+00
  0.1962000000D+01  0.0000000000D+00
  0.4446000000D+00  0.0000000000D+00
  0.1220000000D+00  0.1000000000D+01
 p    1  1.00
  0.7270000000D+00  0.1000000000D+01
  
   2 0
 s    9  1.00
  0.1172000000D+05  0.7100002503D-03
  0.1759000000D+04  0.5470001928D-02
  0.4008000000D+03  0.2783700981D-01
  0.1137000000D+03  0.1048000369D+00
  0.3703000000D+02  0.2830620998D+00
  0.1327000000D+02  0.4487191582D+00
  0.5025000000D+01  0.2709520955D+00
  0.1013000000D+01  0.1545800545D-01
  0.3023000000D+00 -0.2585000911D-02
 s    9  1.00
  0.1172000000D+05 -0.1600000154D-03
  0.1759000000D+04 -0.1263000121D-02
  0.4008000000D+03 -0.6267000602D-02
  0.1137000000D+03 -0.2571600247D-01
  0.3703000000D+02 -0.7092400682D-01
  0.1327000000D+02 -0.1654110159D+00
  0.5025000000D+01 -0.1169550112D+00
  0.1013000000D+01  0.5573680536D+00
  0.3023000000D+00  0.5727590551D+00
 s    9  1.00
  0.1172000000D+05  0.0000000000D+00
  0.1759000000D+04  0.0000000000D+00
  0.4008000000D+03  0.0000000000D+00
  0.1137000000D+03  0.0000000000D+00
  0.3703000000D+02  0.0000000000D+00
  0.1327000000D+02  0.0000000000D+00
  0.5025000000D+01  0.0000000000D+00
  0.1013000000D+01  0.0000000000D+00
  0.3023000000D+00  0.1000000000D+01
 p    4  1.00
  0.1770000000D+02  0.4301799242D-01
  0.3854000000D+01  0.2289129597D+00
  0.1046000000D+01  0.5087279104D+00
  0.2753000000D+00  0.4605309189D+00
 p    4  1.00
  0.1770000000D+02  0.0000000000D+00
  0.3854000000D+01  0.0000000000D+00
  0.1046000000D+01  0.0000000000D+00
  0.2753000000D+00  0.1000000000D+01
 d    1  1.00
  0.1185000000D+01  0.1000000000D+01


[MO]
 Sym=      1.1
 Ene=     -20.5530
 Spin= Alpha
 Occup=    2.000000
1 -0.000328791193702
2 0.000582793699939
3 0.0
4 0.000540539431663
5 0.000476565230881
6 -0.000328791193702
7 0.000582793699939
8 0.0
9 -0.000540539431663
10 0.000476565230881
11 1.00038174454361
12 0.002201149577090
13 -0.001383253395205
14 0.0
15 0.0
16 0.002567850835267
17 0.0
18 0.0
19 -0.001694511587188
20 -0.000106916173861
21 0.000087054868505
22 0.000019861305356
23 0.0
24 0.0
25 0.0
 Sym=      2.1
 Ene=      -1.3347
 Spin= Alpha
 Occup=    2.000000
1 0.32601193337461
2 -0.15329818793395
3 0.0
4 -0.036262124898712
5 -0.021208634121518
6 0.32601193337461
7 -0.15329818793395
8 0.0
9 0.036262124898712
10 -0.021208634121518
11 -0.007713992693500
12 0.87178781186769
13 -0.11998136365497
14 0.0
15 0.0
16 0.11551770182820
17 0.0
18 0.0
19 -0.065796720895076
20 -0.003170170690103
21 0.001639760019914
22 0.001530410670189
23 0.0
24 0.0
25 0.0
 Sym=      1.3
 Ene=      -0.6908
 Spin= Alpha
 Occup=    2.000000
1 0.55304485844537
2 -0.18397808790060
3 0.0
4 -0.022406682509552
5 -0.033007834289959
6 -0.55304485844537
7 0.18397808790060
8 0.0
9 -0.022406682509552
10 0.033007834289959
11 0.0
12 0.0
13 0.0
14 0.0
15 0.71444531248342
16 0.0
17 0.0
18 -0.10081610965856
19 0.0
20 0.0
21 0.0
22 0.0
23 0.0
24 0.0
25 0.026851492039755
 Sym=      3.1
 Ene=      -0.5699
 Spin= Alpha
 Occup=    2.000000
1 0.35798161990852
2 -0.13754697924542
3 0.0
4 -0.032232175125203
5 0.006441338856524
6 0.35798161990852
7 -0.13754697924542
8 0.0
9 0.032232175125203
10 0.006441338856524
11 0.002344289189808
12 -0.29989033485805
13 -0.18203436247177
14 0.0
15 0.0
16 0.78936939756864
17 0.0
18 0.0
19 -0.003744719063787
20 -0.012915004239472
21 -0.005126285254034
22 0.018041289493506
23 0.0
24 0.0
25 0.0
 Sym=      1.2
 Ene=      -0.4935
 Spin= Alpha
 Occup=    2.000000
1 0.0
2 0.0
3 0.030943964380426
4 0.0
5 0.0
6 0.0
7 0.0
8 0.030943964380426
9 0.0
10 0.0
11 0.0
12 0.0
13 0.0
14 0.92047788529691
15 0.0
16 0.0
17 0.071598340671082
18 0.0
19 0.0
20 0.0
21 0.0
22 0.0
23 0.0
24 0.018325510337653
25 0.0
 Sym=      4.1
 Ene=       0.1838
 Spin= Alpha
 Occup=    0.000000
1 0.098582880391616
2 0.77463223004312
3 0.0
4 -0.016520144213160
5 -0.016156390572246
6 0.098582880391616
7 0.77463223004312
8 0.0
9 0.016520144213160
10 -0.016156390572246
11 0.051787830871470
12 -0.14069511761266
13 -0.90925495255624
14 0.0
15 0.0
16 -0.28539803221219
17 0.0
18 0.0
19 -0.21406284249874
20 0.012260179501909
21 -0.004035304289569
22 -0.008224875212340
23 0.0
24 0.0
25 0.0
 Sym=      2.3
 Ene=       0.2554
 Spin= Alpha
 Occup=    0.000000
1 0.050548618898708
2 1.41620951954564
3 0.0
4 -0.019940022385298
5 -0.016315127191143
6 -0.050548618898708
7 -1.41620951954564
8 0.0
9 -0.019940022385298
10 0.016315127191143
11 0.0
12 0.0
13 0.0
14 0.0
15 -0.41752085685383
16 0.0
17 0.0
18 -0.47565284983610
19 0.0
20 0.0
21 0.0
22 0.0
23 0.0
24 0.0
25 -0.020459089420106
 Sym=      3.3
 Ene=       0.7762
 Spin= Alpha
 Occup=    0.000000
1 1.60642454217241
2 -1.51344043509456
3 0.0
4 0.072141636788935
5 0.14484571774605
6 -1.60642454217241
7 1.51344043509456
8 0.0
9 0.072141636788935
10 -0.14484571774605
11 0.0
12 0.0
13 0.0
14 0.0
15 -0.38331456136218
16 0.0
17 0.0
18 -0.27123882963343
19 0.0
20 0.0
21 0.0
22 0.0
23 0.0
24 0.0
25 0.11085608658849
 Sym=      5.1
 Ene=       0.8575
 Spin= Alpha
 Occup=    0.000000
1 1.32612031845503
2 -1.22091592807361
3 0.0
4 0.29319142832878
5 0.072617559433584
6 1.32612031845503
7 -1.22091592807361
8 0.0
9 -0.29319142832878
10 0.072617559433584
11 -0.071281450128868
12 -0.52049883206320
13 0.65338428112958
14 0.0
15 0.0
16 -0.50860230653525
17 0.0
18 0.0
19 0.26537540740403
20 -0.093825634452226
21 0.087831924186343
22 0.005993710265884
23 0.0
24 0.0
25 0.0
 Sym=      6.1
 Ene=       1.1661
 Spin= Alpha
 Occup=    0.000000
1 -0.95119740761612
2 0.37766582024753
3 0.0
4 0.065462268970516
5 0.25993420805043
6 -0.95119740761612
7 0.37766582024753
8 0.0
9 -0.065462268970516
10 0.25993420805043
11 0.009995356429879
12 0.26400045265095
13 0.56049386492850
14 0.0
15 0.0
16 -1.08206341433304
17 0.0
18 0.0
19 1.77514251566530
20 0.002973419300388
21 -0.017511251574919
22 0.014537832274531
23 0.0
24 0.0
25 0.0
 Sym=      2.2
 Ene=       1.1996
 Spin= Alpha
 Occup=    0.000000
1 0.0
2 0.0
3 0.016696262575231
4 0.0
5 0.0
6 0.0
7 0.0
8 0.016696262575231
9 0.0
10 0.0
11 0.0
12 0.0
13 0.0
14 -1.40986825259269
15 0.0
16 0.0
17 1.66764215725114
18 0.0
19 0.0
20 0.0
21 0.0
22 0.0
23 0.0
24 -0.002890558227135
25 0.0
 Sym=      4.3
 Ene=       1.2562
 Spin= Alpha
 Occup=    0.000000
1 -0.62007079655204
2 -0.51002734776160
3 0.0
4 0.29195678863228
5 0.19642137157137
6 0.62007079655204
7 0.51002734776160
8 0.0
9 0.29195678863228
10 -0.19642137157137
11 0.0
12 0.0
13 0.0
14 0.0
15 -1.08554616584749
16 0.0
17 0.0
18 2.24585720023875
19 0.0
20 0.0
21 0.0
22 0.0
23 0.0
24 0.0
25 0.043554621971806
 Sym=      7.1
 Ene=       1.4239
 Spin= Alpha
 Occup=    0.000000
1 0.62715788371869
2 -0.50368910014742
3 0.0
4 -0.36313840974457
5 0.52181302490935
6 0.62715788371869
7 -0.50368910014742
8 0.0
9 0.36313840974457
10 0.52181302490935
11 -0.17867396887060
12 -0.94189711515165
13 0.91707486024902
14 0.0
15 0.0
16 0.19216669250676
17 0.0
18 0.0
19 -0.86906607252074
20 -0.051550251873686
21 -0.066387760977811
22 0.11793801285150
23 0.0
24 0.0
25 0.0
 Sym=      1.4
 Ene=       1.4821
 Spin= Alpha
 Occup=    0.000000
1 0.0
2 0.0
3 0.68685948439183
4 0.0
5 0.0
6 0.0
7 0.0
8 -0.68685948439183
9 0.0
10 0.0
11 0.0
12 0.0
13 0.0
14 0.0
15 0.0
16 0.0
17 0.0
18 0.0
19 0.0
20 0.0
21 0.0
22 0.0
23 0.13317978431554
24 0.0
25 0.0
 Sym=      3.2
 Ene=       1.6602
 Spin= Alpha
 Occup=    0.000000
1 0.0
2 0.0
3 0.76223998124271
4 0.0
5 0.0
6 0.0
7 0.0
8 0.76223998124271
9 0.0
10 0.0
11 0.0
12 0.0
13 0.0
14 -0.007141342195520
15 0.0
16 0.0
17 -0.63406964509105
18 0.0
19 0.0
20 0.0
21 0.0
22 0.0
23 0.0
24 0.16097424911184
25 0.0
 Sym=      8.1
 Ene=       1.8640
 Spin= Alpha
 Occup=    0.000000
1 -1.40367931467814
2 0.31648969153120
3 0.0
4 0.35532572800892
5 0.012699565213526
6 -1.40367931467814
7 0.31648969153120
8 0.0
9 -0.35532572800892
10 0.012699565213526
11 -0.73341065656656
12 -3.17273427347312
13 4.85644220662595
14 0.0
15 0.0
16 0.14900677899826
17 0.0
18 0.0
19 0.90141878458519
20 0.15056791481786
21 -0.040873823954398
22 -0.10969409086347
23 0.0
24 0.0
25 0.0
 Sym=      5.3
 Ene=       1.9402
 Spin= Alpha
 Occup=    0.000000
1 -0.61661550008237
2 0.22309164442467
3 0.0
4 -0.46841469089696
5 0.70139382097211
6 0.61661550008237
7 -0.22309164442467
8 0.0
9 -0.46841469089696
10 -0.70139382097211
11 0.0
12 0.0
13 0.0
14 0.0
15 0.027116473749552
16 0.0
17 0.0
18 0.84323367714586
19 0.0
20 0.0
21 0.0
22 0.0
23 0.0
24 0.0
25 -0.030346645691173
 Sym=      6.3
 Ene=       2.4293
 Spin= Alpha
 Occup=    0.000000
1 -0.46330853221327
2 -0.10016137801121
3 0.0
4 0.73198169710265
5 0.53832862735814
6 0.46330853221327
7 0.10016137801121
8 0.0
9 0.73198169710265
10 -0.53832862735814
11 0.0
12 0.0
13 0.0
14 0.0
15 1.19335134644098
16 0.0
17 0.0
18 -0.42838212270343
19 0.0
20 0.0
21 0.0
22 0.0
23 0.0
24 0.0
25 -0.13228303813717
 Sym=      9.1
 Ene=       2.4758
 Spin= Alpha
 Occup=    0.000000
1 -0.79237368727134
2 0.23497034999653
3 0.0
4 0.72407547507752
5 0.55878951273065
6 -0.79237368727134
7 0.23497034999653
8 0.0
9 -0.72407547507752
10 0.55878951273065
11 0.26241538670362
12 1.37273750622932
13 0.013496093828447
14 0.0
15 0.0
16 0.98868103190854
17 0.0
18 0.0
19 -0.27754417371464
20 0.20853083382308
21 -0.16161424540383
22 -0.046916588419251
23 0.0
24 0.0
25 0.0
 Sym=      4.2
 Ene=       3.2908
 Spin= Alpha
 Occup=    0.000000
1 0.0
2 0.0
3 -0.39746284565729
4 0.0
5 0.0
6 0.0
7 0.0
8 -0.39746284565729
9 0.0
10 0.0
11 0.0
12 0.0
13 0.0
14 -0.022098414756622
15 0.0
16 0.0
17 0.32029636968329
18 0.0
19 0.0
20 0.0
21 0.0
22 0.0
23 0.0
24 1.04331361572037
25 0.0
 Sym=      2.4
 Ene=       3.3227
 Spin= Alpha
 Occup=    0.000000
1 0.0
2 0.0
3 -0.36397887129833
4 0.0
5 0.0
6 0.0
7 0.0
8 0.36397887129833
9 0.0
10 0.0
11 0.0
12 0.0
13 0.0
14 0.0
15 0.0
16 0.0
17 0.0
18 0.0
19 0.0
20 0.0
21 0.0
22 0.0
23 1.06115560244973
24 0.0
25 0.0
 Sym=     10.1
 Ene=       3.5081
 Spin= Alpha
 Occup=    0.000000
1 -0.39309212519774
2 0.17522149320540
3 0.0
4 0.31113802840041
5 -0.33286116457350
6 -0.39309212519774
7 0.17522149320540
8 0.0
9 -0.31113802840041
10 -0.33286116457350
11 -0.076507136947052
12 -0.28775153888582
13 0.57510722071622
14 0.0
15 0.0
16 -0.019433760511184
17 0.0
18 0.0
19 0.48349337315544
20 -0.29502498925337
21 -0.77168603023963
22 1.06671101949300
23 0.0
24 0.0
25 0.0
 Sym=     11.1
 Ene=       3.8416
 Spin= Alpha
 Occup=    0.000000
1 2.10035772730980
2 -0.86037059595743
3 0.0
4 -0.62109071692719
5 -0.47549958994027
6 2.10035772730980
7 -0.86037059595743
8 0.0
9 0.62109071692719
10 -0.47549958994027
11 0.16444265653578
12 0.43265247500705
13 -2.52715184746828
14 0.0
15 0.0
16 -0.57633678195194
17 0.0
18 0.0
19 -0.71025074832421
20 1.10175290924645
21 -0.85280325120608
22 -0.24894965804037
23 0.0
24 0.0
25 0.0
 Sym=      7.3
 Ene=       4.1516
 Spin= Alpha
 Occup=    0.000000
1 -1.80372968190138
2 0.61705827566417
3 0.0
4 0.59211488393210
5 0.51170411792792
6 1.80372968190138
7 -0.61705827566417
8 0.0
9 0.59211488393210
10 -0.51170411792792
11 0.0
12 0.0
13 0.0
14 0.0
15 0.65608695899645
16 0.0
17 0.0
18 0.81427449512331
19 0.0
20 0.0
21 0.0
22 0.0
23 0.0
24 0.0
25 1.32722670723394
 [FREQ]
      0.00
      0.00
      0.00
      0.00
      0.00
      0.00
   1696.30
   3846.26
   3950.43
 [FR-COORD]
H          0.0000000000        1.4188254405        1.0170615082
O          0.0000000000        0.0000000000       -0.1281682753
H          0.0000000000       -1.4188254405        1.0170615082
 [FR-NORM-COORD]
 Vibration                    1
         -0.00000000          0.29654213         -0.06551189
          0.02571168          0.22068757          0.02846433
         -0.02784271          0.29654213          0.12244056
 Vibration                    2
          0.00000000         -0.03253623          0.05202378
          0.02601539          0.01428442         -0.00598234
          0.98426110         -0.03253623         -0.06398845
 Vibration                    3
          0.99611031          0.00000000         -0.00000000
         -0.00000000         -0.00000000          0.00000000
         -0.00000000          0.00000000          0.00000000
 Vibration                    4
         -0.00000000          0.27845263         -0.39514828
          0.10966206         -0.09383320          0.06607672
          0.05556074          0.27845263          0.52730172
 Vibration                    5
         -0.00000000         -0.12964533          0.09765315
          0.21579451          0.01792762         -0.08517501
         -0.13402412         -0.12964533         -0.26800317
 Vibration                    6
         -0.00000000         -0.18350544          0.44398491
          0.05088183          0.00737787          0.20749955
         -0.04051128         -0.18350544         -0.02898582
 Vibration                    7
          0.00000000         -0.41915941          0.53344459
          0.00000000         -0.00000000         -0.06722373
          0.00000000          0.41915941          0.53344459
 Vibration                    8
          0.00000000          0.56605942          0.39500856
         -0.00000000         -0.00000000         -0.04977827
         -0.00000000         -0.56605942          0.39500856
 Vibration                    9
         -0.00000000          0.52830296          0.42642898
         -0.00000000         -0.06657580          0.00000000
         -0.00000000          0.52830296         -0.42642898
