[Molden Format]
[Molpro variables]
_NUMVAR=  1049.000000000000    
_AVOGAD= 0.6022140760000000E+24
_BOLTZ= 0.1380649000000000E-22
_CLIGHTSI=  299792458.0000000    
_JOULE= 0.4359744722207100E-17
_JPCAL=  4.184000000000000    
_PLANCK= 0.6626070150000000E-33
_BOHR= 0.5291772109030000E-10
_ECHARG= 0.1602176634000000E-18
_ENULL= 0.8854187812800001E-11
_MU= 0.1660539066600000E-26
_EMASS= 0.9109383701500001E-30
_AMU2AU=  1822.888486217313    
_CLIGHT=  29979245800.00000    
_EV= 0.3674932217565494E-01
_KJOULE= 0.3808798847133432E-03
_KJOULE/MOL= 0.3808798847133432E-03
_CM= 0.4556335252912009E-05
_CM-1= 0.4556335252912009E-05
_DEB2SI= 0.3335640951981520E-29
_KCAL= 0.1593601437640628E-02
_KCAL/MOL= 0.1593601437640628E-02
_KELVIN= 0.3166811563455608E-05
_HERTZ= 0.1519829846057038E-15
_HZ= 0.1519829846057038E-15
_TOA= 0.5291772109030000    
_TOANG= 0.5291772109030000    
_TORAD= 0.1745329251994330E-01
_TOCM=  219474.6313631965    
_TODEBYE=  2.541746473194078    
_TOE= 0.4803204712570263E-09
_TOEV=  27.21138624598803    
_TOHERTZ=  6579683920501656.    
_TOHZ=  6579683920501656.    
_TOK=  315775.0248040668    
_TOKCAL=  627.5094740630558    
_TOKELVIN=  315775.0248040668    
_TOKJ=  2625.499639479825    
_TOKJOULE=  2625.499639479825    
_TOKG= 0.1660539066600000E-26
_ANG=  1.889726124625770    
_ANGSTROM=  1.889726124625770    
_RPAREF=  0.000000000000000    
_RPADISS=  0.000000000000000    
_IGNORE_UNDEF=  2.000000000000000    
_STRICTCHECK=  0.000000000000000    
!SEWARD=  0.000000000000000    
!MULTI=  0.000000000000000    
!DFMULTI=  0.000000000000000    
_SEW_ONEEL=  0.000000000000000    
_CPPDONE=FALSE
_DKROLL_DONE=  0.000000000000000    
_FNUC_DONE=  0.000000000000000    
_FOCKDONE=TRUE
_GRADONE=FALSE
_HESSDONE=TRUE
_INTDONE=TRUE
_SCFDONE=TRUE
_MODUL_BLOCK=FALSE
_MODUL_CUDA=FALSE
_MODUL_SLATER=FALSE
_MODUL_MRCC=FALSE
_MODUL_NBO6=FALSE
_MODUL_NECI=FALSE
_MODUL_AIMS=TRUE
_MODUL_GECCO=FALSE
_ISWINDOWS=FALSE
_MRCC_EXEC=
_FITC_AO_SAVED=FALSE
_FITC_MO_SAVED=FALSE
_SHARED_FS=TRUE
_LSTYP=SEWARD
_INTYP=INTS
_GEOMTYP=ZMAT
_GRADTYP=ALASKA
_DIRECT=FALSE
_DKHO= -1.000000000000000    
_FNUC=  0.000000000000000    
_SYNCM=  0.000000000000000    
_BASIS=6-311G(D,P)
_ZCENTRE=MASS
_ZORIENT=  1.000000000000000    
_NELEC=  18.00000000000000    
!SPIN=  0.000000000000000    
_OPTCONV= 0.1602875727694611E-02
_QSDSTEP=  0.000000000000000    
_QSDIRC=  0.000000000000000    
_PROGRAM=FREQ
_CPUSTEP=  68.98000000000000    
_SYSSTEP= 0.5099999999999998    
_WALLSTEP=  58.49000000000000    
!DFSCF=  0.000000000000000    
!SCSGRD=  0.000000000000000    
_CPUTOT=  183.6100000000000    
_DFTEXFAC=  1.000000000000000    
_DMX= 0.6828985761719322E-05
_DMY= 0.6119825718727478    
_DMZ= 0.3803803464741491    
_DMX_SCF= 0.6828985761719322E-05
_DMY_SCF= 0.6119825718727478    
_DMZ_SCF= 0.3803803464741491    
_FREQUENCIES= 0.2741135624670848E-04
_HOMO=  9.100000000000000    
_EHOMO=-0.4449015386469763    
_LUMO=  10.10000000000000    
_ELUMO= 0.1554969663536547    
_ENERGY= -115.0758120158616    
_ENERGY_METHOD=HF
_ENERGY_BASIS=6-311G(D,P)
_GEOMETRY_METHOD=HF
_GEOMETRY_BASIS=6-311G(D,P)
_ENUC=  40.81810973904913    
_GRADENERG= -115.0758119637547    
_GRADEXFAC=  9999.000000000000    
_GRADMETHOD=  1.000000000000000    
_NMRMETHOD=  0.000000000000000    
_NMRMAGNET=  0.000000000000000    
_VIRIAL= 0.1783613772991867E-03
!GRID_FREEZE= -1.000000000000000    
!NEESE_INDEX=  0.000000000000000    
_ITERATIONS=  12.00000000000000    
_LASTNELEC=  18.00000000000000    
_LASTSPIN=  0.000000000000000    
_LASTSYM=  1.000000000000000    
_MPP_PROG=  1.000000000000000    
_MSNSTATES=  0.000000000000000    
_RS2PHASE=  0.000000000000000    
_IPROC_MPP=  0.000000000000000    
_IPROC_MPPX=  0.000000000000000    
_NPROC_MPP=  6.000000000000000    
_NPROC_MPPX=  6.000000000000000    
_NPROC_SMP=  8.000000000000000    
_NUMSTEP=  0.000000000000000    
_OPTCONVMX= 0.1406408191896609E-02
_OPTCONVRMS= 0.6543712756573809E-03
_OPTGRAD= 0.2921761170569773E-03
_OPTGRADMX= 0.2597846242170945E-03
_OPTGRADRMS= 0.2434800975474811E-04
_OPTSTEP=  19.00000000000000    
_ORBITAL=  2100.200000000000    
_PI=  3.141592653589793    
_SEIG_MIN= 0.8485444294636397E-02
_SEWPROP=TRUE
_STATUS=  1.000000000000000    
_SYSTOT=  3.350000000000000    
_VERSION=  2022002.000000000    
_WALLTOT=  166.8700000000000    
_ZPE= 0.5486010193962487E-01
_DATE=25-Aug-25
_LASTORB=0
_OUTPUT=/home/zwa/Overlap_Integral_Project/overlap_integral_gaussian/molpro_files/methanol/methanol.out
_PGROUP=C1
_TIME=11:10:52
_LIBMOL=/usr/local/molpro/molpro_2022.2.3_sockets/lib/
_VIGRDC=  0.000000000000000    
!VIBCNT=  0.000000000000000    
!RGHFCNT=  0.000000000000000    
!SURFREC=  0.000000000000000    
!XSURFREC=  0.000000000000000    
!XPOLYREC=  0.000000000000000    
!ROTREC=  0.000000000000000    
!POLYREC=  0.000000000000000    
!DIPREC=  0.000000000000000    
!DIP4DREC=  0.000000000000000    
!DIPROT=  0.000000000000000    
!DIP4DROT=  0.000000000000000    
!PTREC=  0.000000000000000    
!PT4DREC=  0.000000000000000    
!VSCFREC=  0.000000000000000    
!VCIREC=  0.000000000000000    
!PVCIREC=  0.000000000000000    
!VMP2REC=  0.000000000000000    
!VMCSCFREC=  0.000000000000000    
!VMRCIREC=  0.000000000000000    
!VIBSTATEREC=  0.000000000000000    
!VIBSTATECNT=  0.000000000000000    
!VIBINFO=  0.000000000000000    
!GAREC=  0.000000000000000    
!SCFORB=  21002.00000000000    
!DEFCORE=  2.000000000000000    
!SCORE=  0.000000000000000    
!NEWMOL=  0.000000000000000    
!NEWSYM=  0.000000000000000    
_SLFILES=slscratch
_NGSSTO=  9.000000000000000    
_SIN=SIN
_COS=COS
_TAN=TAN
_ACOS=ACOS
_ASIN=ASIN
_ATAN=ATAN
_COSH=COSH
_SINH=SINH
_TANH=TANH
_ABS=ABS
_MOD=MOD
_ERF=ERF
_REFC=REFC
_ERFC=ERFC
_HYPOT=HYPOT
_J0=J0
_J1=J1
_JN=JN
_GAMMA=GAMMA
_LGAMMA=LGAMMA
_Y0=Y0
_Y1=Y1
_YN=YN
_EXP=EXP
_LOG=LOG
_LOG10=LOG10
_SQRT=SQRT
_INT=INT
_NINT=NINT
_MAX=MAX
_MIN=MIN
_COSMO=  0.000000000000000    
_COSMOIT=  0.000000000000000    
_COSMOES=  0.000000000000000    
_COSMOEDS=  0.000000000000000    
_COSMOEC=  0.000000000000000    
_COSMOEDCORR=  0.000000000000000    
_FEPSI=  1.000000000000000    
_SL_IsMM=  0.000000000000000    
_SL_NSYM=  1.000000000000000    
_SL_System_BitSw=  0.000000000000000    
_SL_Unique_atoms=  0.000000000000000    
_SL_GRAD=  0.000000000000000    
_SL_MAXUPD_Hess=  5.000000000000000    
_SL_N_PRINT_COD=  5.000000000000000    
_SL_PRINT_CODES=  0.000000000000000    
_SL_BasType=  0.000000000000000    
_SL_Energy_Pred=  0.000000000000000    
_SL_New_Coords=  0.000000000000000    
_SL_Total_Nuclea=  0.000000000000000    
_SL_Highest_Mltp=  0.000000000000000    
_SL_Ref_Geom=  0.000000000000000    
_SL_Symmetry_ope=  1.000000000000000    
_SL_agrad=  0.000000000000000    
_SL_GrdMax=  0.000000000000000    
_SL_GrdNorm=  0.000000000000000    
_SL_GrdRMS=  0.000000000000000    
_SL_Hss_Q=  0.000000000000000    
_SL_Hss_X=  0.000000000000000    
_SL_BMxOld=  0.000000000000000    
_SL_KtB=  0.000000000000000    
_SL_TROld=  0.000000000000000    
_SL_No_of_Intern=  0.000000000000000    
_SL_Hess=  0.000000000000000    
_SL_K=  0.000000000000000    
!LATTICE= -1.000000000000000    
!NEWLATTICE=  0.000000000000000    
!LATGRAD_VAR=FALSE
!SEW_LATTICE=  1.000000000000000    
!AIC_ONEEL=  0.000000000000000    
!LOCAL=  0.000000000000000    
!SAVEDOM= -1.000000000000000    
!RESTDOM= -1.000000000000000    
!SAVEDOM_HF= -1.000000000000000    
!RESTDOM_HF= -1.000000000000000    
!HESSREC=  5300.200000000000    
!FREQREC=  5400.200000000000    
!NMODREC=  5450.200000000000    
!GTASKS=  0.000000000000000    
!HTASKS=  0.000000000000000    
!SAVEDOM_EOM= -1.000000000000000    
!RESTDOM_EOM= -1.000000000000000    
!GRADSTATE= -1.000000000000000    
!DEBUG=  0.000000000000000    
!CFIT_CPHF=  0.000000000000000    
!RDOMAUX_CPHF=  0.000000000000000    
!THRAO_CPHF= 0.1000000000000000E-11
!THRMO_CPHF= 0.1000000000000000E-11
!THROV_CPHF= 0.1000000000000000E-11
!THRSW_CPHF= 0.1000000000000000E-11
!THRPROD_CPHF= 0.1000000000000000E-11
!THRAOPR_CPHF= 0.1000000000000000E-11
!CFIT_SCFGRD=  0.000000000000000    
!RDOMAUX_SCFGRD=  0.000000000000000    
!THRAO_SCFGRD= 0.1000000000000000E-11
!THRMO_SCFGRD= 0.1000000000000000E-11
!THROV_SCFGRD= 0.1000000000000000E-11
!THRSW_SCFGRD= 0.1000000000000000E-11
!THRPROD_SCFGRD= 0.1000000000000000E-11
!THRAOPR_SCFGRD= 0.1000000000000000E-11
!LOCFIT_SCF=  0.000000000000000    
!LOCFIT_MP2=  0.000000000000000    
_RIDOM=  0.000000000000000    
!CC2_METHOD=  0.000000000000000    
_BASIS2006=FALSE
_SVDDEL= -1.000000000000000    
_SVDDELA= -1.000000000000000    
_SVDDELP= -1.000000000000000    
_SVDDELF= -1.000000000000000    
_SVDDELS= -1.000000000000000    
_SVDDEL_ABS= -1.000000000000000    
_SVDDELA_ABS= -1.000000000000000    
_SVDDELP_ABS= -1.000000000000000    
_SVDDELF_ABS= -1.000000000000000    
_SVDDELS_ABS= -1.000000000000000    
_MAXBASIS=  0.000000000000000    
!OPT_CONICAL=  0.000000000000000    
!CLEARSP_JGRID=  0.000000000000000    
_GRDHYBR=  0.000000000000000    
_STATEGRAD=  1.000000000000000    
_4EXT_NDISKS=  1.000000000000000    
!EMBEDFLAG=  1.000000000000000    
!EMBED=FALSE
!EMBED_F12=FALSE
!EMBEDNUC=  0.000000000000000    
_EMBEDENERGY=  0.000000000000000    
!EMBED_DFC=FALSE
!NUM_VOIDS=  0.000000000000000    
_IBODY=  0.000000000000000    
_EMBE_CORR=  0.000000000000000    
!EMBED_PROJ=FALSE
!EMB_PROJ_ZMU=  1000000.000000000    
!CORRECTION_HF=  0.000000000000000    
!EMBED_AORB=  0.000000000000000    
!EMBED_NACORR=  0.000000000000000    
!EMBED_MP2=FALSE
!EMBED_TRUNC_PERTURBATION=FALSE
!EMBED_FROZEN=  0.000000000000000    
!EMBED_ACTIVE=  0.000000000000000    
_CHANGE_BASIS=FALSE
_RESTORE_BASIS=FALSE
_FIX_EMBED_GUESS=FALSE
_EMBED_SCF=FALSE
_HUZINAGA_T=FALSE
_HUZINAGA_F=FALSE
_HUZINAGA=FALSE
_HUZINAGA_CORRECT=FALSE
!FASTLATGRAD=  1.000000000000000    
!FASTVLAMBDA= -1.000000000000000    
!IFORCE= -1.000000000000000    
!USESYM= -1.000000000000000    
_SINDEX=  0.000000000000000    
_AVDOM_OSV=  0.000000000000000    
_AVDOM_PNO=  0.000000000000000    
_AVDOM_PAO=  0.000000000000000    
_AVDOM_LMO=  0.000000000000000    
_CC2OSV_FLAG=  0.000000000000000    
_EOMCCSD_CONV=FALSE
_TMADC2_FLAG=FALSE
_PROPADC2_FLAG=FALSE
_LEN_VirQ=  0.000000000000000    
_GRDCC2LR_FLAG=FALSE
_GRDADC2_FLAG=FALSE
_RO_VGLOBAL=  0.000000000000000    
_OPT=FALSE
_FREQ=FALSE
_HESS=FALSE
_CMRCC_callName=EMPTY
_CMRCC_callCount=  0.000000000000000    
_GECCO_CIROOT=  1.000000000000000    
_SYM_CATION=  1.000000000000000    
_MON_A=FALSE
_MON_B=FALSE
GX1=-0.3602547906323015E-06
GY1= 0.1301666312926409E-01
GZ1= 0.7171662898998811    
GX2=-0.5873997738348856E-04
GY2= -1.000468000481130    
GZ2=  1.095895534389607    
GX3= 0.8846155691113663    
GY3= 0.5199377690569519    
GZ3=  1.098183354513055    
GX4=-0.8845337140958113    
GY4= 0.5200627732988097    
GZ4=  1.098219406111816    
GX5=-0.1774979933615184E-05
GY5=-0.6299434553535672E-01
GZ5=-0.6800178477164043    
GX6= 0.9344666417579373E-05
GY6= 0.8052459958633329    
GZ6= -1.039100771814499    
CX1=-0.6807828893841429E-06
CY1= 0.2459792837082338E-01
CZ1=  1.355247873724744    
HX2=-0.1110024698215099E-03
HY2= -1.890610517361300    
HZ2=  2.070942421196760    
HX3=  1.671681151200442    
HY3= 0.9825399853665624    
HZ3=  2.075265774652483    
HX4= -1.671526467639116    
HY4= 0.9827762091480901    
HZ4=  2.075333902300497    
OX5=-0.3354225951243824E-05
OY5=-0.1190420604618664    
OZ5= -1.285047492041478    
HX6= 0.1765886025520815E-04
HY6=  1.521694395133235    
HZ6= -1.963615874616660    
[Atoms] Angs
C     1    6        -0.0000003603        0.0130166631        0.7171662899
H     2    1        -0.0000587400       -1.0004680005        1.0958955344
H     3    1         0.8846155691        0.5199377691        1.0981833545
H     4    1        -0.8845337141        0.5200627733        1.0982194061
O     5    8        -0.0000017750       -0.0629943455       -0.6800178477
H     6    1         0.0000093447        0.8052459959       -1.0391007718
[GTO]
   1 0
 s    6  1.00
  0.4563240000D+04  0.1966650249D-02
  0.6820240000D+03  0.1523060193D-01
  0.1549730000D+03  0.7612690966D-01
  0.4445530000D+02  0.2608010331D+00
  0.1302900000D+02  0.6164620782D+00
  0.1827730000D+01  0.2210060280D+00
 s    3  1.00
  0.2096420000D+02  0.1146600807D+00
  0.4803310000D+01  0.9199996477D+00
  0.1459330000D+01 -0.3030682134D-02
 s    1  1.00
  0.4834560000D+00  0.1000000000D+01
 s    1  1.00
  0.1455850000D+00  0.1000000000D+01
 p    3  1.00
  0.2096420000D+02  0.4024869267D-01
  0.4803310000D+01  0.2375939567D+00
  0.1459330000D+01  0.8158538515D+00
 p    1  1.00
  0.4834560000D+00  0.1000000000D+01
 p    1  1.00
  0.1455850000D+00  0.1000000000D+01
 d    1  1.00
  0.6260000000D+00  0.1000000000D+01
  
   2 0
 s    3  1.00
  0.3386500000D+02  0.2549381454D-01
  0.5094790000D+01  0.1903731086D+00
  0.1158790000D+01  0.8521614860D+00
 s    1  1.00
  0.3258400000D+00  0.1000000000D+01
 s    1  1.00
  0.1027410000D+00  0.1000000000D+01
 p    1  1.00
  0.7500000000D+00  0.1000000000D+01
  
   3 0
 s    3  1.00
  0.3386500000D+02  0.2549381454D-01
  0.5094790000D+01  0.1903731086D+00
  0.1158790000D+01  0.8521614860D+00
 s    1  1.00
  0.3258400000D+00  0.1000000000D+01
 s    1  1.00
  0.1027410000D+00  0.1000000000D+01
 p    1  1.00
  0.7500000000D+00  0.1000000000D+01
  
   4 0
 s    3  1.00
  0.3386500000D+02  0.2549381454D-01
  0.5094790000D+01  0.1903731086D+00
  0.1158790000D+01  0.8521614860D+00
 s    1  1.00
  0.3258400000D+00  0.1000000000D+01
 s    1  1.00
  0.1027410000D+00  0.1000000000D+01
 p    1  1.00
  0.7500000000D+00  0.1000000000D+01
  
   5 0
 s    6  1.00
  0.8588500000D+04  0.1895150083D-02
  0.1297230000D+04  0.1438590063D-01
  0.2992960000D+03  0.7073200310D-01
  0.8737710000D+02  0.2400010105D+00
  0.2567890000D+02  0.5947970261D+00
  0.3740040000D+01  0.2808020123D+00
 s    3  1.00
  0.4211750000D+02  0.1138890124D+00
  0.9628370000D+01  0.9208111006D+00
  0.2853320000D+01 -0.3274470358D-02
 s    1  1.00
  0.9056610000D+00  0.1000000000D+01
 s    1  1.00
  0.2556110000D+00  0.1000000000D+01
 p    3  1.00
  0.4211750000D+02  0.3651139738D-01
  0.9628370000D+01  0.2371529830D+00
  0.2853320000D+01  0.8197019412D+00
 p    1  1.00
  0.9056610000D+00  0.1000000000D+01
 p    1  1.00
  0.2556110000D+00  0.1000000000D+01
 d    1  1.00
  0.1292000000D+01  0.1000000000D+01
  
   6 0
 s    3  1.00
  0.3386500000D+02  0.2549381454D-01
  0.5094790000D+01  0.1903731086D+00
  0.1158790000D+01  0.8521614860D+00
 s    1  1.00
  0.3258400000D+00  0.1000000000D+01
 s    1  1.00
  0.1027410000D+00  0.1000000000D+01
 p    1  1.00
  0.7500000000D+00  0.1000000000D+01


[MO]
 Sym=      1.1
 Ene=     -20.5412
 Spin= Alpha
 Occup=    2.000000
1 -0.000002532696493
2 -0.000033145004942
3 0.000095642200914
4 0.000571908727439
5 -0.000000001377771
6 -0.000016619687762
7 -0.000029205400002
8 0.000000003455083
9 0.000038557199393
10 -0.000262696450814
11 0.000000005496868
12 -0.000147442455568
13 -0.000208081437077
14 -0.000052501006338
15 -0.000080110874595
16 0.000132611880933
17 0.000000000758462
18 0.000000001576755
19 -0.000021493565106
20 0.000030166239084
21 -0.000133253710734
22 -0.000051365986899
23 -0.000000000677435
24 0.000013107224719
25 -0.000001580871205
26 0.000009944841028
27 -0.000065834480009
28 -0.000003809400645
29 -0.000014842411085
30 0.000012556162104
31 0.000027131689752
32 0.000009946017752
33 -0.000065817536703
34 -0.000003804058741
35 0.000014847214805
36 0.000012551373143
37 0.000027131573835
38 0.55143951641743
39 0.47166570017422
40 0.005654994064258
41 -0.000842494347281
42 0.000000012686473
43 0.001503440231616
44 0.000928277667403
45 -0.000000003390975
46 -0.000553906349210
47 -0.000332456649864
48 -0.000000001725491
49 0.000134362690190
50 -0.000183575732949
51 0.000149430421664
52 -0.000009896907885
53 -0.000139533513779
54 -0.000000001747773
55 0.000000002811466
56 0.000035929280066
57 0.000213416780290
58 0.000076610271476
59 0.000069113321346
60 -0.000000000195258
61 -0.000041666239320
62 0.000082128917662
 Sym=      2.1
 Ene=     -11.2657
 Spin= Alpha
 Occup=    2.000000
1 0.56343777859406
2 0.46655721563009
3 0.004145156354712
4 -0.001243931512143
5 -0.000000022453226
6 0.000036257982979
7 -0.000950199896864
8 0.000000024632886
9 -0.000034749580748
10 0.000755503674411
11 -0.000000014620310
12 0.000029775737634
13 -0.000137032859078
14 0.000112446138675
15 0.000164923858809
16 -0.000277369997484
17 0.000000005981401
18 -0.000000004469588
19 -0.000034728017844
20 0.000346328677676
21 0.000042897875521
22 0.000287256198117
23 -0.000000003978372
24 -0.000043533819495
25 -0.000025759239872
26 0.000349907909678
27 0.000074330474411
28 0.000260325285896
29 0.000020402823934
30 0.000011709308391
31 -0.000033955214366
32 0.000349905637348
33 0.000074334872336
34 0.000260310683014
35 -0.000020399669619
36 0.000011709218913
37 -0.000033958438378
38 -0.000073384266335
39 -0.000132235340986
40 0.000311318495393
41 0.000337857203582
42 0.000000000712291
43 0.000015586652349
44 0.000110176671908
45 -0.000000001592707
46 0.000011095256235
47 0.000560309178825
48 -0.000000000556565
49 0.000015653979281
50 0.000142284485559
51 -0.000102110992530
52 -0.000122210487255
53 0.000224321479784
54 -0.000000000771165
55 -0.000000001837388
56 0.000049120184822
57 -0.000010413355273
58 0.000032472083377
59 -0.000030930744558
60 -0.000000000345476
61 -0.000046725571233
62 0.000023210228944
 Sym=      3.1
 Ene=      -1.3621
 Spin= Alpha
 Occup=    2.000000
1 -0.037715716482667
2 -0.061593798560470
3 0.15340023692176
4 0.001991354663527
5 0.000000131895539
6 -0.000358276287255
7 -0.041233612180478
8 0.000000006092407
9 0.000444730093261
10 -0.081137839374369
11 -0.000000547765111
12 0.004615034621702
13 0.004178563684878
14 -0.014444125549877
15 -0.013792999049992
16 0.028237124599869
17 0.000000128873271
18 0.000000081458844
19 -0.000176357321392
20 0.014944759543283
21 0.031507753228531
22 0.001177683078546
23 0.000000519662851
24 0.007649684481176
25 -0.003629726274775
26 0.014899131957928
27 0.029745036284805
28 -0.000744041980182
29 -0.006538429086767
30 -0.003925637775141
31 -0.003956497885152
32 0.014898555582011
33 0.029744264237686
34 -0.000744715916889
35 0.006537663515418
36 -0.003926410752608
37 -0.003957094239356
38 -0.10952613319398
39 -0.18293322436666
40 0.51822392673188
41 0.38876194237180
42 0.000000492469945
43 0.029142341788000
44 0.019824620953313
45 0.000000797110976
46 0.049454077035344
47 0.036460014228892
48 0.000000381471795
49 0.017061932992723
50 0.028590763508901
51 -0.008039548390760
52 0.003030968869453
53 0.005008579521308
54 0.000000163129314
55 -0.000000016756102
56 -0.001874594262601
57 0.091530139010178
58 0.074847601046534
59 -0.001117587961214
60 -0.000000274689033
61 -0.023202974708968
62 0.012838517552538
 Sym=      4.1
 Ene=      -0.9267
 Spin= Alpha
 Occup=    2.000000
1 -0.094372019550564
2 -0.15677473953194
3 0.40793270288085
4 0.24066599914990
5 0.000000984599489
6 -0.005867092167633
7 0.028940994084964
8 0.000000893933007
9 -0.009636229030926
10 0.024471734974411
11 0.000000414709116
12 0.006352630220995
13 0.023955638169716
14 -0.000637989363613
15 0.001838931275424
16 -0.001200941911811
17 0.000000090059771
18 -0.000000236532066
19 0.001965133232985
20 0.087003904790986
21 0.12461027236863
22 0.007358564647533
23 0.000001218929559
24 0.019938896679263
25 -0.005076880690812
26 0.082509253921570
27 0.11493937034331
28 0.003691204488125
29 -0.016294303204884
30 -0.009845405875823
31 -0.005396760750071
32 0.082508447049914
33 0.11493828193737
34 0.003691116130538
35 0.016292494553539
36 -0.009847548353516
37 -0.005397562548931
38 0.031046111318704
39 0.052180364548598
40 -0.15063287462661
41 -0.14338719256066
42 -0.000000065254101
43 -0.035018861907574
44 0.084197934314597
45 -0.000000140178445
46 -0.056378238771601
47 0.13406413828204
48 0.000000078681432
49 -0.021463648556741
50 0.073107128899486
51 -0.000984798289677
52 -0.010756716259247
53 0.011741514548924
54 -0.000000129535087
55 0.000000106486824
56 0.006791113235886
57 -0.075922763843762
58 -0.088771851970104
59 -0.013277936889456
60 0.000000242856924
61 0.016791688882409
62 -0.002380086660630
 Sym=      5.1
 Ene=      -0.6945
 Spin= Alpha
 Occup=    2.000000
1 -0.012864952202891
2 -0.020878756248634
3 0.049426794774533
4 0.066699417576607
5 0.000000741285974
6 0.086772267995825
7 0.085069619614798
8 0.000001633691928
9 0.14498722354167
10 0.14527273305707
11 0.000001476001884
12 0.085598847591668
13 0.054994158562535
14 0.024010261248983
15 0.004057889482463
16 -0.028068150731446
17 -0.000002168174187
18 -0.000000568854357
19 -0.010947530446284
20 -0.023875254937937
21 -0.026147392083669
22 -0.009302050987320
23 -0.000000259690826
24 -0.000415641261060
25 0.002640980656773
26 0.068032250776019
27 0.091149681189480
28 0.023748601709977
29 -0.008396218511858
30 -0.000586022530264
31 0.000765787305585
32 0.068040222810381
33 0.091161599675478
34 0.023752245358934
35 0.008397039775725
36 -0.000587996156514
37 0.000765001533087
38 0.022045267041296
39 0.037546619513890
40 -0.11512538042170
41 -0.16773583229473
42 0.000001995698413
43 0.16786381988632
44 -0.095559414017344
45 0.000003057662938
46 0.25756933300920
47 -0.15056376425700
48 0.000001881505690
49 0.17258249578475
50 -0.087072944008487
51 -0.004981535421719
52 0.019530629550102
53 -0.014549094128383
54 0.000000356992627
55 -0.000000034804096
56 -0.001211524460596
57 0.13540107064614
58 0.20223420922786
59 0.037059264251658
60 -0.000000301236475
61 -0.023768256846745
62 0.013145645408772
 Sym=      6.1
 Ene=      -0.6209
 Spin= Alpha
 Occup=    2.000000
1 0.000000361199192
2 0.000000570707546
3 -0.000001424887564
4 -0.000002013293525
5 0.16231665871948
6 0.000001388572869
7 -0.000004989536295
8 0.26309724387022
9 0.000002743228301
10 -0.000008137207769
11 0.14791969619076
12 0.000003136801662
13 -0.000003466690521
14 0.000004549912721
15 -0.000004856485317
16 0.000000306572596
17 0.023066553761596
18 -0.001730325694468
19 -0.000000271854985
20 -0.000010378764713
21 -0.000014420121527
22 -0.000004999568917
23 0.008984642101228
24 -0.000001417182056
25 0.000000055341413
26 0.10843366462544
27 0.16122428578719
28 0.064068217465043
29 -0.007135958497491
30 -0.008359350619345
31 -0.004651478954187
32 -0.10842600048102
33 -0.16121549304895
34 -0.064064801604859
35 -0.007133905529720
36 0.008361381607688
37 0.004651755293343
38 0.000000819627015
39 0.000001387713163
40 -0.000004154324669
41 -0.000006041642638
42 0.15617864868913
43 0.000001754400520
44 0.000005057141544
45 0.24350591019747
46 0.000002612908888
47 0.000007813399953
48 0.21096338846683
49 0.000002033423482
50 0.000006315249757
51 -0.000000061834467
52 -0.000000203907040
53 0.000000265741507
54 0.008111462672178
55 0.012058050718104
56 0.000000394662186
57 0.000000163334303
58 0.000000489995325
59 -0.000001124628615
60 0.016756789500458
61 -0.000000048348907
62 0.000000578677664
 Sym=      7.1
 Ene=      -0.5957
 Spin= Alpha
 Occup=    2.000000
1 -0.000112467121028
2 -0.000962931339927
3 0.005828148788634
4 -0.021328503598859
5 -0.000004207465222
6 0.11015544147837
7 -0.12224682912938
8 -0.000006797963141
9 0.17951780502206
10 -0.21488376251225
11 -0.000003288270295
12 0.13162940002037
13 -0.098633304710285
14 -0.005611313688681
15 -0.033459978663576
16 0.039071292352256
17 -0.000003335756253
18 0.000000316904082
19 0.004364988937218
20 -0.12733830826231
21 -0.17495143065290
22 -0.062139184943062
23 -0.000001160916311
24 -0.010920801973501
25 -0.000760757618730
26 0.006269082536518
27 0.008324856085967
28 0.002418382398721
29 -0.002291432416273
30 0.003570547308464
31 -0.005220795681161
32 0.006282970195374
33 0.008345420805735
34 0.002427641422821
35 0.002292666327369
36 0.003569276847634
37 -0.005221745164895
38 0.014449075855316
39 0.024484721486961
40 -0.073880683728427
41 -0.11014810876826
42 -0.000004996958223
43 0.065657888366474
44 0.17369213169658
45 -0.000007828773151
46 0.10075400986801
47 0.26857451534783
48 -0.000007074973704
49 0.091504685024953
50 0.21653649371578
51 -0.006506282227602
52 -0.004348260908051
53 0.010854543135653
54 -0.000000302549482
55 -0.000000251760369
56 0.017670596392771
57 -0.028395289137636
58 -0.032147816228039
59 -0.039780195196504
60 -0.000000530063720
61 0.010426090550143
62 0.017574029626480
 Sym=      8.1
 Ene=      -0.4979
 Spin= Alpha
 Occup=    2.000000
1 -0.004836297524010
2 -0.008385607747675
3 0.026143740546602
4 -0.018255027431638
5 -0.000001419936078
6 -0.13776261102626
7 -0.041989054868033
8 -0.000002401158989
9 -0.21246809288372
10 -0.078030307318569
11 -0.000002518497365
12 -0.11307616248579
13 -0.013699833095477
14 -0.023605893716385
15 0.009414549811255
16 0.014191343905130
17 0.000003468828104
18 0.000000662825246
19 -0.031159453850742
20 0.11488832556320
21 0.22068896851280
22 0.081002217397025
23 0.000001336179490
24 0.013965214007647
25 -0.009579929006103
26 -0.072690120648793
27 -0.12274069928815
28 -0.064116878932937
29 0.010035354776607
30 -0.004863287060228
31 0.001172922092307
32 -0.072704571894815
33 -0.12276919843146
34 -0.064128701835174
35 -0.010037046489715
36 -0.004860597303999
37 0.001174207535982
38 0.024951420396047
39 0.042443390361657
40 -0.12836928138762
41 -0.22129788655917
42 -0.000002472592832
43 0.16955029419889
44 0.083152002469816
45 -0.000003933421963
46 0.25153509747353
47 0.12385470715062
48 -0.000004042808090
49 0.23540089098813
50 0.14540671707758
51 -0.010241982557227
52 0.009737399860746
53 0.000504582696481
54 0.000000167722022
55 -0.000000173107605
56 0.000822378223778
57 0.082393047457113
58 0.15535356280944
59 0.030102453905526
60 -0.000000536180232
61 -0.009985539871507
62 0.020409712141596
 Sym=      9.1
 Ene=      -0.4449
 Spin= Alpha
 Occup=    2.000000
1 0.000000028479182
2 0.000000011791887
3 0.000000242110111
4 -0.000001374535679
5 -0.10594373433833
6 -0.000001276256355
7 -0.000000399181390
8 -0.16203510757088
9 -0.000001577115158
10 -0.000001040579191
11 -0.083941611026302
12 -0.000002032375646
13 -0.000001045582236
14 -0.000003602766175
15 0.000002434817041
16 0.000001167949133
17 -0.016568178091319
18 -0.038109906703191
19 0.000000372998213
20 0.000007163291874
21 0.000014586621570
22 0.000006028175924
23 -0.008382502777229
24 0.000001484317541
25 -0.000000417779364
26 -0.094903449695934
27 -0.19203406833514
28 -0.083698798534227
29 0.007103685627123
30 0.008193988459156
31 0.005683934497461
32 0.094894014939838
33 0.19201736131057
34 0.083692087038685
35 0.007100416616726
36 -0.008195428423723
37 -0.005684079809791
38 0.000000187794716
39 0.000000314509787
40 -0.000000817214728
41 -0.000002916414584
42 0.24720843620693
43 -0.000000401953625
44 0.000003147375026
45 0.37137663483917
46 -0.000000782445053
47 0.000004731383963
48 0.41427129835238
49 -0.000001421447351
50 0.000005045869097
51 -0.000000036955687
52 -0.000000025114494
53 0.000000062070181
54 0.010878124209834
55 0.003376567904530
56 0.000000001214170
57 0.000001051000767
58 0.000003019952490
59 -0.000000094683552
60 0.026693369471789
61 -0.000000468023649
62 0.000000606368987
 Sym=     10.1
 Ene=       0.1555
 Spin= Alpha
 Occup=    0.000000
1 0.030135409894213
2 0.047956698680242
3 -0.015983726245301
4 -1.74074376899181
5 -0.000000020178894
6 -0.021148632146790
7 -0.060163177127211
8 -0.000000956329480
9 -0.015103939277104
10 -0.062372371746675
11 -0.000003830365502
12 -0.15962005271252
13 -0.23575273835465
14 0.005193995429204
15 0.002958626823610
16 -0.008152622252813
17 -0.000000558144159
18 0.000000105413301
19 0.006550543181706
20 0.001799839144707
21 0.048810406677685
22 0.45027232523386
23 0.000000468100376
24 0.005574345668880
25 -0.008881134214671
26 0.002714524242835
27 0.013630855364112
28 0.80721702772452
29 0.000400962725246
30 0.001791412972803
31 -0.006692786475761
32 0.002714510210999
33 0.013622035724705
34 0.80726367949624
35 -0.000401826007273
36 0.001792285653676
37 -0.006692850261979
38 0.019247609687259
39 0.032104706071981
40 -0.081439990920690
41 -0.33777998923659
42 -0.000000890311493
43 -0.045826342283325
44 0.032581369693238
45 -0.000001003337899
46 -0.063795104786294
47 0.025152336656100
48 -0.000002947241422
49 -0.11746323507459
50 0.21991438170308
51 0.000583748844295
52 -0.002263945087699
53 0.001680196243403
54 -0.000000089692372
55 0.000000022037901
56 -0.001082459450947
57 0.027792309809496
58 -0.10529724597153
59 0.91891213631880
60 0.000000118368446
61 0.010113740912785
62 -0.009267123596660
 Sym=     11.1
 Ene=       0.1900
 Spin= Alpha
 Occup=    0.000000
1 -0.035089742665267
2 -0.056925851592171
3 0.083086141852718
4 1.23765669445389
5 -0.000001226718222
6 -0.027526461006917
7 0.008262032976397
8 -0.000001188417633
9 -0.013953191695691
10 -0.019002139962833
11 -0.000007252678556
12 -0.28631897072689
13 0.17781458359213
14 0.001149650970996
15 0.003217648666488
16 -0.004367299637483
17 0.000000210813879
18 0.000000226801374
19 0.006430996086339
20 -0.012867778812303
21 0.078758541660782
22 -1.10889460140953
23 0.000000328368857
24 0.008295141959480
25 -0.009121843942652
26 -0.011713532466670
27 0.076887133166804
28 -0.56306026712061
29 -0.003565994166736
30 0.001941134018734
31 -0.007892926629724
32 -0.011714287367701
33 0.076889201854018
34 -0.56305111020874
35 0.003565805007937
36 0.001940674162442
37 -0.007893741871009
38 0.023155829889530
39 0.038234134207579
40 -0.079519755681049
41 -0.57835593448006
42 -0.000000173631999
43 -0.059215298456488
44 -0.002291358540312
45 -0.000000378794891
46 -0.083316951165821
47 -0.027184812017853
48 -0.000000103101776
49 -0.18891106480707
50 0.043626283539301
51 0.000872694358899
52 -0.005552534475583
53 0.004679840116685
54 -0.000000109656741
55 -0.000000071367220
56 -0.003306694613388
57 0.037296089823761
58 -0.091066703413369
59 1.23883551989510
60 -0.000000050107466
61 0.000639556950035
62 -0.010681220568016
 Sym=     12.1
 Ene=       0.2265
 Spin= Alpha
 Occup=    0.000000
1 -0.000000496854347
2 -0.000000920001609
3 0.000004451354877
4 -0.000016304982924
5 -0.14198770743982
6 0.000019315313123
7 -0.000001623852033