
 Working directory              : /tmp/zwa/molpro.JjQJy7sZkn/
 Global scratch directory       : /tmp/zwa/molpro.JjQJy7sZkn/
 Wavefunction directory         : /home/zwa/wfu/
 Main file repository           : /tmp/zwa/molpro.JjQJy7sZkn/

 id        : liedlgroup

 Nodes     nprocs
 rh2-c724     6
 GA implementation: MPI file
 GA implementation (serial work in mppx): MPI file

 Using customized tuning parameters: mindgm=1; mindgv=20; mindgc=4; mindgr=1; noblas=0; minvec=7
 default implementation of scratch files=sf  


 Variables initialized (1015), CPU time= 0.07 sec
 memory,1000,m
 orient,mass
 geometry = {
  C,                 -5.13924038 ,   0.99999999  ,  0.00000000
  H,                 -4.78258595 ,  -0.00881002  ,  0.00000000
  H,                 -4.78256754 ,   1.50439818  ,  0.87365150
  H,                 -6.20924038 ,   1.00001317  ,  0.00000000
  O,                 -4.66256546 ,   1.67410224  , -1.16759033
  H,                 -4.03197131 ,   3.20418707  , -1.55668147
 }
 
 mass,iso
 basis=6-311g(d,p)
 {hf
 start,atden}
 
 optg
 {frequencies, symm=auto,print=0,analytical}
 put,molden,methanol.molden
 Commands initialized (834), CPU time= 0.04 sec, 672 directives.
 Default parameters read. Elapsed time= 1.31 sec

 Checking input...
 Passed
1


                                         ***  PROGRAM SYSTEM MOLPRO  ***
                                       Copyright, TTI GmbH Stuttgart, 2015
                                    Version 2022.2 linked Thu Sep 29 12:37:28 2022


 **********************************************************************************************************************************
 LABEL *                                                                                 
  (8 PROC) 64 bit mpp version                                                            DATE: 25-Aug-25          TIME: 11:10:52  
 **********************************************************************************************************************************

 SHA1:             51306cdc306ce2a111a2867affebcb289530e0a7
 **********************************************************************************************************************************

 Memory per process:      1000 MW
 Total memory per node:   6000 MW

 GA preallocation disabled
 GA check disabled

 Variable memory set to 1000.0 MW

 ZCENTRE=MASS


 Geometry recognized as XYZ



 Using masses of most abundant isotopes

 **********************************************************************************************************************************
 SETTING BASIS          =    6-311G(D,P)


 Recomputing integrals since basis changed


 Using spherical harmonics

 Library entry C      S 6-311G               selected for orbital group  1
 Library entry C      P 6-311G               selected for orbital group  1
 Library entry C      D 6-311G*              selected for orbital group  1
 Library entry H      S 6-311G               selected for orbital group  2
 Library entry H      P 6-311G**             selected for orbital group  2
 Library entry O      S 6-311G               selected for orbital group  3
 Library entry O      P 6-311G               selected for orbital group  3
 Library entry O      D 6-311G*              selected for orbital group  3


 PROGRAM * SEWARD (Integral evaluation for generally contracted gaussian basis sets)     Author: Roland Lindh, 1990

 Geometry written to block  1 of record 700

 Orientation using atomic masses  
 Molecule type: Asymmetric top
 Rotational constants:      20.6874951     21.6052430    122.8239524 GHz

 Point group  C1  



 ATOMIC COORDINATES

 NR  ATOM    CHARGE       X              Y              Z

   1  C       6.00   -0.000000035    0.099836165    1.443489822
   2  H       1.00    1.259749845   -1.242977841    2.279188915
   3  H       1.00    0.609257276    1.972306842    1.903023482
   4  H       1.00   -1.869006772   -0.194862219    2.156566816
   5  O       8.00    0.000000001   -0.214174341   -1.240512389
   6  H       1.00    0.000000050    1.675902415   -3.838339008

 Bond lengths in Bohr (Angstrom)

 1-2  2.022006970  1-3  2.022006947  1-4  2.022006954  1-5  2.702308359
     ( 1.070000009)     ( 1.069999996)     ( 1.070000000)     ( 1.430000001)

 Bond angles

  2-1-3  109.47120256   2-1-4  109.47123124   2-1-5  109.47120228   3-1-4  109.47121844

  3-1-5  109.47125079   4-1-5  109.47121850

 NUCLEAR CHARGE:                   18
 NUMBER OF PRIMITIVE AOS:          96
 NUMBER OF SYMMETRY AOS:           94
 NUMBER OF CONTRACTIONS:           60   (   60A   )
 NUMBER OF INNER CORE ORBITALS:     0   (    0A   )
 NUMBER OF OUTER CORE ORBITALS:     2   (    2A   )
 NUMBER OF VALENCE ORBITALS:       12   (   12A   )


 NUCLEAR REPULSION ENERGY   37.81236537


 Eigenvalues of metric

         1 0.926E-02 0.207E-01 0.209E-01 0.320E-01 0.413E-01 0.439E-01 0.528E-01 0.890E-01


 Contracted 2-electron integrals neglected if value below      1.0D-11
 AO integral compression algorithm  1   Integral accuracy      1.0D-11

     8.651 MB (compressed) written to integral file ( 52.3%)

     Node minimum: 0.786 MB, node maximum: 1.835 MB


 NUMBER OF SORTED TWO-ELECTRON INTEGRALS:     279990.     BUFFER LENGTH:  32768
 NUMBER OF SEGMENTS:   1  SEGMENT LENGTH:     279990      RECORD LENGTH: 524288

 Memory used in sort:       0.84 MW

 SORT1 READ     2093033. AND WROTE      258990. INTEGRALS IN      1 RECORDS. CPU TIME:     0.17 SEC, REAL TIME:     0.18 SEC
 SORT2 READ     1530587. AND WROTE     1675365. INTEGRALS IN     42 RECORDS. CPU TIME:     0.05 SEC, REAL TIME:     0.06 SEC

 Node minimum:      278465.  Node maximum:      279990. integrals

 OPERATOR DM      FOR CENTER  0  COORDINATES:    0.000000    0.000000    0.000000


 **********************************************************************************************************************************
 DATASETS  * FILE   NREC   LENGTH (MB)   RECORD NAMES
              1      18       28.78       500      610      700      900      950      970     1000      129      960     1100   
                                          VAR    BASINP    GEOM    SYMINP    ZMAT    AOBASIS   BASIS     P2S    ABASIS      S 
                                         1400     1410     1200     1210     1080     1600     1650     1700   
                                           T        V       H0       H01     AOSYM     SMH    MOLCAS    OPER   

 PROGRAMS   *        TOTAL       INT
 CPU TIMES  *         2.51      1.37
 REAL TIME  *         4.28 SEC
 DISK USED  *        29.12 MB (local),      204.96 MB (total)
 GA USED    *         0.00 MB       (max)       0.00 MB       (current)
 **********************************************************************************************************************************


 Program * Restricted Hartree-Fock

 Orbital guess generated from atomic densities.

 Initial occupancy:   9

 NELEC=   18   SYM=1   MS2= 0   THRE=1.0D-08   THRD=1.0D-06   THRG=1.0D-06  HFMA2=F  DIIS_START=2   DIIS_MAX=10   DIIS_INCORE=F

 Level shifts:    0.00 (CLOSED)    0.00 (OPEN)    0.30 (GAP_MIN)

 ITER           ETOT              DE          GRAD        DDIFF     DIIS  NEXP   TIME(IT)  TIME(TOT)  DIAG
   1     -114.77690553    -114.77690553     0.00D+00     0.57D-01     0     0       0.05      0.33    start
   2     -114.83734595      -0.06044042     0.12D-01     0.11D-01     1     0       0.26      0.59    diag
   3     -114.87429384      -0.03694789     0.11D-01     0.45D-02     2     0       0.27      0.86    diag
   4     -114.87879257      -0.00449873     0.17D-02     0.22D-02     3     0       0.27      1.13    diag
   5     -114.87958835      -0.00079578     0.10D-02     0.98D-03     4     0       0.28      1.41    diag
   6     -114.87971092      -0.00012257     0.23D-03     0.41D-03     5     0       0.29      1.70    diag
   7     -114.87974191      -0.00003099     0.11D-03     0.23D-03     6     0       0.24      1.94    diag
   8     -114.87974551      -0.00000359     0.33D-04     0.71D-04     7     0       0.25      2.19    fixocc
   9     -114.87974572      -0.00000021     0.91D-05     0.19D-04     8     0       0.06      2.25    diag
  10     -114.87974572      -0.00000001     0.29D-05     0.30D-05     9     0       0.33      2.58    diag/orth
  11     -114.87974572      -0.00000000     0.81D-06     0.10D-05     9     0       0.23      2.81    diag
  12     -114.87974572      -0.00000000     0.25D-06     0.41D-06     9     0       0.25      3.06    diag
  13     -114.87974572      -0.00000000     0.14D-06     0.15D-06     0     0       0.21      3.27    diag

 Final occupancy:   9

 !RHF STATE 1.1 Energy               -114.879745724884
  RHF One-electron energy            -232.127207995227
  RHF Two-electron energy              79.435096895801
  RHF Kinetic energy                  114.571853331179
  RHF Nuclear energy                   37.812365374543
  RHF Virial quotient                  -1.002687330132

 !RHF STATE 1.1 Dipole moment           0.02185972     0.56970047     0.11660383
 Dipole moment /Debye                   0.05556188     1.44803415     0.29637738

 Orbital energies:

           1.1          2.1          3.1          4.1          5.1          6.1          7.1          8.1          9.1         10.1
    -20.563149   -11.264024    -1.276592    -0.902705    -0.614595    -0.603325    -0.567095    -0.434900    -0.402123     0.011775

          11.1
      0.172074


 HOMO      9.1    -0.402123 =     -10.9423eV
 LUMO     10.1     0.011775 =       0.3204eV
 LUMO-HOMO         0.413898 =      11.2627eV

 Orbitals saved in record  2100.2


 **********************************************************************************************************************************
 DATASETS  * FILE   NREC   LENGTH (MB)   RECORD NAMES
              1      18       28.78       500      610      700      900      950      970     1000      129      960     1100   
                                          VAR    BASINP    GEOM    SYMINP    ZMAT    AOBASIS   BASIS     P2S    ABASIS      S 
                                         1400     1410     1200     1210     1080     1600     1650     1700   
                                           T        V       H0       H01     AOSYM     SMH    MOLCAS    OPER   

              2       4        0.49       700     1000      520     2100   
                                         GEOM     BASIS   MCVARS     RHF  

 PROGRAMS   *        TOTAL    HF-SCF       INT
 CPU TIMES  *         5.86      3.35      1.37
 REAL TIME  *         6.22 SEC
 DISK USED  *        29.56 MB (local),      207.60 MB (total)
 GA USED    *         0.00 MB       (max)       0.00 MB       (current)
 **********************************************************************************************************************************


 PROGRAM * OPT (Geometry optimization)     Authors: F. Eckert and H.-J. Werner


 BFGS update of hessian

 *** Long output written to logfile /home/zwa/Overlap_Integral_Project/overlap_integral_gaussian/molpro_files/methanol/methanol.log ***


 Geometry optimization using default procedure for command HF-SCF

 Geometry written to block  1 of record 700

 Making model hessian for cartesian coordinates

 Entering Rational Function Geometry Optimization

 ITER.   ENERGY(OLD)    ENERGY(NEW)      DE          GRADMAX     GRADNORM    GRADRMS     STEPMAX     STEPLEN     STEPRMS   CPU-time
   1  -114.87974572  -114.92212002    -0.04237430  0.10351229  0.14602840  0.01216903  0.24737766  0.30000000  0.12247449      6.20
   2  -114.92212002  -114.96982880    -0.04770877  0.11148180  0.16404975  0.01367081  0.22841978  0.30000000  0.12247449     12.06
   3  -114.96982880  -115.02110054    -0.05127175  0.11312636  0.18412653  0.01534388  0.18960262  0.30000000  0.12247449     17.73
   4  -115.02110054  -115.05065208    -0.02955154  0.12047478  0.15529688  0.01294141  0.20776236  0.30000000  0.12247449     23.64
   5  -115.05065208  -115.06387475    -0.01322267  0.04784374  0.08374139  0.00697845  0.22144757  0.30000000  0.12247449     28.91
   6  -115.06387475  -115.07173114    -0.00785639  0.03464043  0.05493881  0.00457823  0.20856604  0.30000000  0.12247449     34.14
   7  -115.07173114  -115.07415607    -0.00242492  0.01850737  0.02638779  0.00219898  0.19563495  0.24178366  0.09870777     39.86
   8  -115.07415607  -115.07453548    -0.00037941  0.01436642  0.01775618  0.00147968  0.05543643  0.06727930  0.02746666     45.51
   9  -115.07453548  -115.07482793    -0.00029246  0.00648750  0.00889685  0.00074140  0.11893329  0.13372988  0.05459500     51.91
  10  -115.07482793  -115.07508710    -0.00025917  0.00711797  0.01164633  0.00097053  0.09773678  0.10509172  0.04290352     57.02
  11  -115.07508710  -115.07547426    -0.00038715  0.00892084  0.01152322  0.00096027  0.13661338  0.15075280  0.06154457     61.80
  12  -115.07547426  -115.07565316    -0.00017890  0.00821953  0.00985879  0.00082157  0.12266070  0.13239881  0.05405159     67.19
  13  -115.07565316  -115.07543149     0.00022167  0.01097021  0.01305524  0.00108794  0.06742276  0.09193511  0.03753235     72.67
  14  -115.07543149  -115.07578665    -0.00035516  0.01854886  0.02298097  0.00191508  0.04642809  0.06560246  0.02678209     78.30
  15  -115.07578665  -115.07580019    -0.00001354  0.00622908  0.00687848  0.00057321  0.02868403  0.03114862  0.01271637     83.77
  16  -115.07580019  -115.07580779    -0.00000760  0.00044492  0.00088432  0.00007369  0.02256082  0.02384572  0.00973497     88.94
  17  -115.07580779  -115.07581144    -0.00000365  0.00118500  0.00123043  0.00010254  0.02518324  0.02655052  0.01083921     93.45
  18  -115.07581144  -115.07581196    -0.00000053  0.00100654  0.00112640  0.00009387  0.00308009  0.00331183  0.00135205     99.01
  19  -115.07581196  -115.07581202    -0.00000005  0.00025978  0.00029218  0.00002435  0.00140641  0.00160288  0.00065437    104.21

 END OF GEOMETRY OPTIMIZATION.

 Geometry written to block  1 of record 700

 Recomputing wavefunction for reoriented structure

 Current geometry (xyz format, in Angstrom)

    6
 HF-SCF000/6-311G(D,P)  ENERGY=-115.07581202
 C         -0.0000003603        0.0130166631        0.7171662899
 H         -0.0000587400       -1.0004680005        1.0958955344
 H          0.8846155691        0.5199377691        1.0981833545
 H         -0.8845337141        0.5200627733        1.0982194061
 O         -0.0000017750       -0.0629943455       -0.6800178477
 H          0.0000093447        0.8052459959       -1.0391007718

 **********************************************************************************************************************************


 **********************************************************************************************************************************
 DATASETS  * FILE   NREC   LENGTH (MB)   RECORD NAMES
              1      18       28.78       500      610      700      900      950      970     1000      129      960     1100   
                                          VAR    BASINP    GEOM    SYMINP    ZMAT    AOBASIS   BASIS     P2S    ABASIS      S 
                                         1400     1410     1200     1210     1080     1600     1650     1700   
                                           T        V       H0       H01     AOSYM     SMH    MOLCAS    OPER   

              2       4        0.49       700     1000      520     2100   
                                         GEOM     BASIS   MCVARS     RHF  

 PROGRAMS   *        TOTAL      OPTG    HF-SCF       INT
 CPU TIMES  *       114.63    108.77      3.35      1.37
 REAL TIME  *       108.38 SEC
 DISK USED  *        29.56 MB (local),      208.66 MB (total)
 SF USED    *         0.06 MB
 GA USED    *         0.00 MB       (max)       0.00 MB       (current)
 **********************************************************************************************************************************


 PROGRAM * HESSIAN

 PROGRAM * MCKINLEY (Hessian of the energy)     Author: A. Bernhardsson, R. Lindh

 Orbitals from record         2100.2

 Number of closed-shell orbitals:  9 (  9 )
 Number of occupied orbitals:      9 (  9 )

 Number of electrons= 18     Singlet     Space symmetry=1      Wavefunction type: CLOSED          


 McKinley needed     43.71 seconds of CPU time

 Entering CPHF calculation

 CPHF needed 142 iterations for 18 perturbations.  Total CPU time:   25.10 sec


 HF-SCF hessian saved to record  5300.2

 PROGRAM * FREQUENCIES (Calculation of harmonic vibrational spectra for HF-SCF)


 Permanent Dipole Moment [debye]
   1-  3    0.000000    0.000000    0.000000

 Dipole Moment Norm    0.0000000 [debye]

 Dipole Moment Derivatives [debye/ang]
              1             2             3             4             5             6             7             8
    1    0.00000000    0.00000000    0.00000000    0.00000000    0.00000000    0.00000000    0.00000000    0.00000000
    2    0.00000000    0.00000000    0.00000000    0.00000000    0.00000000    0.00000000    0.00000000    0.00000000
    3    0.00000000    0.00000000    0.00000000    0.00000000    0.00000000    0.00000000    0.00000000    0.00000000
              9            10            11            12            13            14            15            16
    1    0.00000000    0.00000000    0.00000000    0.00000000    0.00000000    0.00000000    0.00000000    0.00000000
    2    0.00000000    0.00000000    0.00000000    0.00000000    0.00000000    0.00000000    0.00000000    0.00000000
    3    0.00000000    0.00000000    0.00000000    0.00000000    0.00000000    0.00000000    0.00000000    0.00000000
             17            18
    1    0.00000000    0.00000000
    2    0.00000000    0.00000000
    3    0.00000000    0.00000000

 Projecting out rotations and translations

 Force Constants (Second Derivatives of the Energy) in [a.u.]
                             CX1         CY1         CZ1         HX2         HY2     
           CX1           0.6245909
           CY1           0.0000022   0.6769006
           CZ1          -0.0000020  -0.0170715   0.5692465
           HX2          -0.0613250  -0.0000150   0.0000053   0.0547298
           HY2          -0.0000151  -0.3205365   0.0899373   0.0000167   0.3381639
           HZ2           0.0000046   0.0736181  -0.0828207  -0.0000058  -0.0976670
           HX3          -0.2452052  -0.1033960  -0.0657914   0.0018118  -0.0000300
           HY3          -0.1022153  -0.1235780  -0.0371070  -0.0302291  -0.0141625
           HZ3          -0.0611944  -0.0323405  -0.0825644   0.0100658   0.0038904
           HX4          -0.2451684   0.1034089   0.0657892   0.0018155   0.0000280
           HY4           0.1022284  -0.1236068  -0.0371191   0.0302264  -0.0141659
           HZ4           0.0611936  -0.0323516  -0.0825717  -0.0100651   0.0038917
           OX5          -0.0729765   0.0000004  -0.0000016   0.0025336   0.0000004
           OY5          -0.0000003  -0.1146437   0.0091294   0.0000009   0.0080156
           OZ5          -0.0000023  -0.0414104  -0.3005935   0.0000000   0.0017561
           HX6           0.0000841  -0.0000005   0.0000006   0.0004343   0.0000000
           HY6           0.0000001   0.0054644  -0.0077692   0.0000002   0.0026853
           HZ6           0.0000006   0.0495560  -0.0206963  -0.0000002  -0.0018085
                             HZ2         HX3         HY3         HZ3         HX4     
           HZ2           0.1065777
           HX3           0.0013816   0.2578213
           HY3          -0.0102447   0.1153905   0.1212818
           HZ3           0.0060846   0.0777786   0.0455362   0.1024911
           HX4          -0.0013827  -0.0244641   0.0151775   0.0077488   0.2577793
           HY4          -0.0102453  -0.0151718   0.0107495   0.0057165  -0.1154057
           HZ4           0.0060850  -0.0077471   0.0057174   0.0067589  -0.0777758
           OX5           0.0000019   0.0102612   0.0006134  -0.0337716   0.0102625
           OY5           0.0458408   0.0032134   0.0049980  -0.0215335  -0.0032148
           OZ5          -0.0273531  -0.0046631  -0.0039585  -0.0346254   0.0046617
           HX6           0.0000004  -0.0002249   0.0012630  -0.0006271  -0.0002248
           HY6          -0.0013019  -0.0000062   0.0007112  -0.0012691   0.0000061
           HZ6          -0.0085736  -0.0009586   0.0000566   0.0018552   0.0009588
                             HY4         HZ4         OX5         OY5         OZ5     
           HY4           0.1213123
           HZ4           0.0455493   0.1024940
           OX5          -0.0006143   0.0337675   0.0533248
           OY5           0.0049993  -0.0215375   0.0000070   0.6471560
           OZ5          -0.0039580  -0.0346219   0.0000014  -0.1695849   0.5229853
           HX6          -0.0012630   0.0006268  -0.0034057  -0.0000062   0.0000023
           HY6           0.0007115  -0.0012694  -0.0000069  -0.5505252   0.2171557
           HZ6           0.0000565   0.0018557   0.0000024   0.1576856  -0.1257915
                             HX6         HY6         HZ6     
           HX6           0.0033370
           HY6           0.0000067   0.5409529
           HZ6          -0.0000030  -0.2055462   0.1513505


 Atomic Masses
   1-  6   12.000000    1.007825    1.007825    1.007825   15.994910    1.007825

 Mass weighted Second Derivative Matrix
                             CX1         CY1         CZ1         HX2         HY2     
           CX1           0.0520492
           CY1           0.0000002   0.0564084
           CZ1          -0.0000002  -0.0014226   0.0474372
           HX2          -0.0176341  -0.0000043   0.0000015   0.0543049
           HY2          -0.0000043  -0.0921710   0.0258617   0.0000165   0.3355383
           HZ2           0.0000013   0.0211690  -0.0238153  -0.0000057  -0.0969087
           HX3          -0.0705093  -0.0297317  -0.0189185   0.0017977  -0.0000298
           HY3          -0.0293923  -0.0355351  -0.0106702  -0.0299944  -0.0140525
           HZ3          -0.0175966  -0.0092996  -0.0237416   0.0099876   0.0038602
           HX4          -0.0704987   0.0297355   0.0189178   0.0018014   0.0000278
           HY4           0.0293960  -0.0355434  -0.0106737   0.0299917  -0.0140559
           HZ4           0.0175963  -0.0093028  -0.0237437  -0.0099869   0.0038614
           OX5          -0.0052675   0.0000000  -0.0000001   0.0006310   0.0000001
           OY5          -0.0000000  -0.0082750   0.0006590   0.0000002   0.0019964
           OZ5          -0.0000002  -0.0029890  -0.0216969   0.0000000   0.0004374
           HX6           0.0000242  -0.0000002   0.0000002   0.0004309   0.0000000
           HY6           0.0000000   0.0015713  -0.0022340   0.0000002   0.0026644
           HZ6           0.0000002   0.0142499  -0.0059513  -0.0000002  -0.0017945
                             HZ2         HX3         HY3         HZ3         HX4     
           HZ2           0.1057502
           HX3           0.0013709   0.2558195
           HY3          -0.0101651   0.1144946   0.1203401
           HZ3           0.0060374   0.0771747   0.0451826   0.1016953
           HX4          -0.0013720  -0.0242742   0.0150597   0.0076887   0.2557778
           HY4          -0.0101657  -0.0150540   0.0106661   0.0056721  -0.1145097
           HZ4           0.0060378  -0.0076869   0.0056730   0.0067064  -0.0771719
           OX5           0.0000005   0.0025557   0.0001528  -0.0084114   0.0025561
           OY5           0.0114174   0.0008004   0.0012448  -0.0053633  -0.0008007
           OZ5          -0.0068128  -0.0011614  -0.0009859  -0.0086240   0.0011611
           HX6           0.0000004  -0.0002232   0.0012532  -0.0006222  -0.0002231
           HY6          -0.0012918  -0.0000061   0.0007056  -0.0012592   0.0000061
           HZ6          -0.0085070  -0.0009511   0.0000561   0.0018408   0.0009513
                             HY4         HZ4         OX5         OY5         OZ5     
           HY4           0.1203704
           HZ4           0.0451957   0.1016983
           OX5          -0.0001530   0.0084104   0.0033339
           OY5           0.0012452  -0.0053643   0.0000004   0.0404601
           OZ5          -0.0009858  -0.0086232   0.0000001  -0.0106024   0.0326970
           HX6          -0.0012532   0.0006219  -0.0008483  -0.0000016   0.0000006
           HY6           0.0007060  -0.0012595  -0.0000017  -0.1371178   0.0540864
           HZ6           0.0000561   0.0018413   0.0000006   0.0392743  -0.0313305
                             HX6         HY6         HZ6     
           HX6           0.0033111
           HY6           0.0000066   0.5367528
           HZ6          -0.0000029  -0.2039503   0.1501754


 Mass Weighted 2nd Derivative Matrix Eigenvalues
   1- 10    0.000000    0.000000    0.000000    0.000000    0.000000    0.000000    0.004434    0.050906    0.052634    0.061720
  11- 18    0.083887    0.098740    0.099181    0.100590    0.373249    0.383869    0.401439    0.663271

 Mass Weighted 2nd Derivative Matrix Eigenvectors
              1             2             3             4             5             6             7             8
    1   -0.03631142   -0.00885606    0.07815468    0.12361543    0.30369745    0.75547283    0.01500138    0.00000172
    2    0.17282119   -0.17562109    0.37447692   -0.21914409    0.60657458   -0.24047536    0.00000280   -0.23814822
    3    0.34803285    0.30263169   -0.16292341    0.31976681    0.16351087   -0.08092267   -0.00000425   -0.01236279
    4   -0.36695934   -0.05184359    0.03441153    0.36923862    0.25192471    0.12669818    0.28185222   -0.00000188
    5    0.04461164   -0.05331480    0.08832411   -0.10661961    0.24217161   -0.08752343   -0.00001609    0.13293671
    6    0.08616172    0.08122147   -0.10126977   -0.02264541    0.22505791   -0.07118742   -0.00000421    0.53182788
    7    0.18391937   -0.05755313   -0.01423587   -0.08859849    0.04294683    0.34110698   -0.09731269   -0.03650795
    8   -0.27592210   -0.05019305    0.11643608    0.15961930    0.36425622   -0.21221122    0.21201853    0.19478329
    9    0.08315140    0.21443262    0.02789564    0.08468522   -0.09873247   -0.11747869   -0.04690342   -0.26843525
   10    0.18396567   -0.05755861   -0.01424182   -0.08863347    0.04293197    0.34112938   -0.09734225    0.03651120
   11    0.36500627   -0.05646529    0.05997255   -0.37332321    0.12092288    0.03691905   -0.21200109    0.19478009
   12    0.13327544   -0.03253749   -0.06824560    0.21602085    0.01574592    0.11833087    0.04690176   -0.26849950
   13   -0.30932055    0.76787105    0.40239639   -0.17922899    0.03203281    0.08767639   -0.25138209   -0.00000326
   14    0.28026394   -0.16720328    0.72919077    0.38033051   -0.27546405   -0.01542154   -0.00000023    0.00988902
   15    0.39741762    0.34745834   -0.20424772    0.33472112    0.24186090   -0.10769087    0.00000394   -0.13319943
   16    0.22672912    0.23979744    0.09281356   -0.33319224   -0.13462240    0.09641308    0.86249640    0.00000570
   17    0.07555527   -0.03967700    0.20218957    0.13633055   -0.13209320    0.01304319   -0.00001008    0.25986470
   18    0.11235182    0.09276520   -0.00496401    0.18281194   -0.09149605    0.01386776    0.00000483    0.57840713
              9            10            11            12            13            14            15            16
    1    0.00004046    0.42211469    0.00001441   -0.00001580   -0.19739298   -0.00001206   -0.00009292   -0.31124417
    2   -0.03101620   -0.00000390    0.38014295    0.07088920   -0.00000550    0.14404521    0.10469567   -0.00000055
    3   -0.67308263    0.00007052   -0.03961711   -0.34647067    0.00002045    0.16376530    0.14192784   -0.00004340
    4   -0.00002290   -0.25060652   -0.00001057    0.00009017    0.70910915    0.00008986    0.00000716   -0.02309059
    5    0.00635000    0.00000620   -0.02160670    0.25915572   -0.00007837    0.06196386    0.25514264   -0.00011817
    6   -0.14325450   -0.00001884   -0.37841559    0.58903479   -0.00008739    0.14525071   -0.08949028    0.00004232
    7   -0.00320045   -0.16566739    0.09232503   -0.01473564    0.05939446    0.40273870   -0.55334430    0.54438086
    8   -0.00237625    0.08335800   -0.17275890   -0.29172759   -0.37085604   -0.39819130   -0.30575246    0.32515958
    9   -0.16734256    0.56687360    0.15638368    0.37917413    0.29554431   -0.36867736   -0.21880523    0.22249161
   10    0.00316962   -0.16571141   -0.09234489    0.01471724    0.05952635   -0.40278605    0.55365272    0.54397635
   11   -0.00238744   -0.08336341   -0.17275428   -0.29166199    0.37098842   -0.39804596   -0.30604496   -0.32503781
   12   -0.16746707   -0.56680578    0.15641581    0.37911194   -0.29552329   -0.36872577   -0.21896991   -0.22236837
   13   -0.00001994   -0.21809214   -0.00000372   -0.00000437   -0.03427166   -0.00000013    0.00000108    0.00200702
   14    0.03213630    0.00000408   -0.29274010    0.02144240   -0.00001047    0.06604741   -0.00079031   -0.00000084
   15    0.67443231   -0.00006644   -0.11506500   -0.02876005   -0.00000628    0.02962082    0.00809496   -0.00000361
   16   -0.00000642   -0.00573810   -0.00000445    0.00000015   -0.01036866   -0.00000036    0.00000078    0.00072541
   17   -0.02258580   -0.00000358    0.22160844   -0.00580073    0.00000668   -0.02589309   -0.00146250    0.00000162
   18    0.11381302   -0.00002761    0.66071679   -0.03720518    0.00002082   -0.09094424    0.00527659   -0.00000143
             17            18
    1   -0.00003100   -0.00000008
    2   -0.29379806   -0.00581756
    3    0.05860337   -0.00256943
    4    0.00005030    0.00000070
    5    0.86907950    0.01065327
    6   -0.31120093   -0.00409188
    7    0.14609655    0.00043724
    8    0.06704063    0.00053575
    9    0.05582787   -0.00233808
   10   -0.14603991   -0.00043774
   11    0.06703556    0.00053641
   12    0.05581349   -0.00233817
   13    0.00000011   -0.00000281
   14    0.00593986   -0.22208375
   15   -0.00004822    0.09935543
   16   -0.00000040    0.00001127
   17   -0.01303132    0.89308769
   18   -0.00246670   -0.37817867

   Low Vibration      Wavenumber
        Nr             [1/cm] 
        1                0.00
        2                0.00
        3                0.00
        4                0.00
        5                0.00
        6                0.00

     Vibration        Wavenumber
        Nr             [1/cm] 
        1              342.28
        2             1159.82
        3             1179.34
        4             1277.07
        5             1488.85
        6             1615.29
        7             1618.89
        8             1630.35
        9             3140.53
       10             3184.90
       11             3256.97
       12             4186.49

 FREQUENCIES * CALCULATION OF NORMAL MODES FOR HF-SCF


 Atomic Coordinates

  Nr  Atom  Charge       X              Y              Z

   1   C     6.00   -0.000000681    0.024597928    1.355247874
   2   H     1.00   -0.000111002   -1.890610517    2.070942421
   3   H     1.00    1.671681151    0.982539985    2.075265775
   4   H     1.00   -1.671526468    0.982776209    2.075333902
   5   O     8.00   -0.000003354   -0.119042060   -1.285047492
   6   H     1.00    0.000017659    1.521694395   -1.963615875

 Gradient norm at reference geometry: 0.29218D-03

 Normal Modes

                              1 A         2 A         3 A         4 A         5 A  
 Wavenumbers [cm-1]          342.28     1159.82     1179.34     1277.07     1488.85
 Intensities [km/mol]          0.00        0.00        0.00        0.00        0.00
 Intensities [relative]        0.00        0.00        0.00        0.00        0.00
           CX1              0.00433     0.00000     0.00001     0.12185     0.00000
           CY1              0.00000    -0.06875    -0.00895    -0.00000     0.10974
           CZ1             -0.00000    -0.00357    -0.19430     0.00002    -0.01144
           HX2              0.28076    -0.00000    -0.00002    -0.24963    -0.00001
           HY2             -0.00002     0.13242     0.00633     0.00001    -0.02152
           HZ2             -0.00000     0.52976    -0.14270    -0.00002    -0.37694
           HX3             -0.09693    -0.03637    -0.00319    -0.16502     0.09197
           HY3              0.21119     0.19403    -0.00237     0.08303    -0.17209
           HZ3             -0.04672    -0.26739    -0.16669     0.56467     0.15578
           HX4             -0.09696     0.03637     0.00316    -0.16507    -0.09199
           HY4             -0.21118     0.19402    -0.00238    -0.08304    -0.17208
           HZ4              0.04672    -0.26746    -0.16682    -0.56460     0.15581
           OX5             -0.06286    -0.00000    -0.00000    -0.05453    -0.00000
           OY5             -0.00000     0.00247     0.00804     0.00000    -0.07320
           OZ5              0.00000    -0.03331     0.16863    -0.00002    -0.02877
           HX6              0.85914     0.00001    -0.00001    -0.00572    -0.00000
           HY6             -0.00001     0.25885    -0.02250    -0.00000     0.22075
           HZ6              0.00000     0.57616     0.11337    -0.00003     0.65815

                              6 A         7 A         8 A         9 A        10 A  
 Wavenumbers [cm-1]         1615.29     1618.89     1630.35     3140.53     3184.90
 Intensities [km/mol]          0.00        0.00        0.00        0.00        0.00
 Intensities [relative]        0.00        0.00        0.00        0.00        0.00
           CX1             -0.00000    -0.05698    -0.00000    -0.00003    -0.08985
           CY1              0.02046    -0.00000     0.04158     0.03022    -0.00000
           CZ1             -0.10002     0.00001     0.04727     0.04097    -0.00001
           HX2              0.00009     0.70635     0.00009     0.00001    -0.02300
           HY2              0.25815    -0.00008     0.06172     0.25415    -0.00012
           HZ2              0.58674    -0.00009     0.14469    -0.08914     0.00004
           HX3             -0.01468     0.05916     0.40117    -0.55119     0.54226
           HY3             -0.29059    -0.36941    -0.39664    -0.30456     0.32389
           HZ3              0.37770     0.29439    -0.36724    -0.21795     0.22163
           HX4              0.01466     0.05929    -0.40122     0.55150     0.54186
           HY4             -0.29053     0.36955    -0.39650    -0.30485    -0.32377
           HZ4              0.37764    -0.29437    -0.36729    -0.21812    -0.22150
           OX5             -0.00000    -0.00857    -0.00000     0.00000     0.00050
           OY5              0.00536    -0.00000     0.01651    -0.00020    -0.00000
           OZ5             -0.00719    -0.00000     0.00741     0.00202    -0.00000
           HX6              0.00000    -0.01033    -0.00000     0.00000     0.00072
           HY6             -0.00578     0.00001    -0.02579    -0.00146     0.00000
           HZ6             -0.03706     0.00002    -0.09059     0.00526    -0.00000

                             11 A        12 A  
 Wavenumbers [cm-1]         3256.97     4186.49
 Intensities [km/mol]          0.00        0.00
 Intensities [relative]        0.00        0.00
           CX1             -0.00001    -0.00000
           CY1             -0.08481    -0.00168
           CZ1              0.01692    -0.00074
           HX2              0.00005     0.00000
           HY2              0.86570     0.01061
           HZ2             -0.30999    -0.00408
           HX3              0.14553     0.00044
           HY3              0.06678     0.00053
           HZ3              0.05561    -0.00233
           HX4             -0.14547    -0.00044
           HY4              0.06677     0.00053
           HZ4              0.05560    -0.00233
           OX5              0.00000    -0.00000
           OY5              0.00149    -0.05553
           OZ5             -0.00001     0.02484
           HX6             -0.00000     0.00001
           HY6             -0.01298     0.88961
           HZ6             -0.00246    -0.37671


 Normal Modes of low/zero frequencies

                                  1           2           3           4           5
 Wavenumbers [cm-1]            0.00        0.00        0.00        0.00        0.00
 Intensities [km/mol]          0.00        0.00        0.00        0.00        0.00
 Intensities [relative]        0.00        0.00        0.00        0.00        0.00
           CX1             -0.01048    -0.00256     0.02256     0.03568     0.08767
           CY1              0.04989    -0.05070     0.10810    -0.06326     0.17510
           CZ1              0.10047     0.08736    -0.04703     0.09231     0.04720
           HX2             -0.36553    -0.05164     0.03428     0.36780     0.25094
           HY2              0.04444    -0.05311     0.08798    -0.10620     0.24123
           HZ2              0.08583     0.08091    -0.10088    -0.02256     0.22418
           HX3              0.18320    -0.05733    -0.01418    -0.08825     0.04278
           HY3             -0.27485    -0.05000     0.11598     0.15900     0.36284
           HZ3              0.08283     0.21360     0.02779     0.08436    -0.09835
           HX4              0.18325    -0.05733    -0.01419    -0.08829     0.04276
           HY4              0.36359    -0.05625     0.05974    -0.37187     0.12045
           HZ4              0.13276    -0.03241    -0.06798     0.21518     0.01568
           OX5             -0.07734     0.19200     0.10062    -0.04481     0.00801
           OY5              0.07008    -0.04181     0.18233     0.09510    -0.06888
           OZ5              0.09937     0.08688    -0.05107     0.08369     0.06047
           HX6              0.22585     0.23886     0.09245    -0.33190    -0.13410
           HY6              0.07526    -0.03952     0.20140     0.13580    -0.13158
           HZ6              0.11191     0.09240    -0.00494     0.18210    -0.09114

                                  6
 Wavenumbers [cm-1]            0.00
 Intensities [km/mol]          0.00
 Intensities [relative]        0.00
           CX1              0.21809
           CY1             -0.06942
           CZ1             -0.02336
           HX2              0.12621
           HY2             -0.08718
           HZ2             -0.07091
           HX3              0.33978
           HY3             -0.21139
           HZ3             -0.11702
           HX4              0.33980
           HY4              0.03678
           HZ4              0.11787
           OX5              0.02192
           OY5             -0.00386
           OZ5             -0.02693
           HX6              0.09604
           HY6              0.01299
           HZ6              0.01381


 Frequencies dumped to record   5400.2

 Zero point energy:  0.05486010 [H]    12040.40 [1/CM]      144.04 [KJ/MOL]
 Frequency information read from record  5400.2


 **********************************************************************************************************************************
 DATASETS  * FILE   NREC   LENGTH (MB)   RECORD NAMES
              1      18       28.78       500      610      700      900      950      970     1000      129      960     1100   
                                          VAR    BASINP    GEOM    SYMINP    ZMAT    AOBASIS   BASIS     P2S    ABASIS      S 
                                         1400     1410     1200     1210     1080     1600     1650     1700   
                                           T        V       H0       H01     AOSYM     SMH    MOLCAS    OPER   

              2       7        0.54       700     1000      520     2100     5300     5450     5400   
                                         GEOM     BASIS   MCVARS     RHF     HESS     NMOD     FREQ   

              4       5        1.06      4100     4000     4200     4300     4400   

 PROGRAMS   *        TOTAL      FREQ      OPTG    HF-SCF       INT
 CPU TIMES  *       183.61     68.86    108.77      3.35      1.37
 REAL TIME  *       166.87 SEC
 DISK USED  *        29.56 MB (local),      208.66 MB (total)
 SF USED    *         1.06 MB
 GA USED    *         0.00 MB       (max)       0.00 MB       (current)
 **********************************************************************************************************************************

 Dump information in style MOLDEN to methanol.molden                                                                 

 Molecular orbitals read from record     2100.2  Type=RHF/CANONICAL  
 Occupation numbers read from record     2100.2  Type=RHF/RHF  
 Orbital energies read from record       2100.2  Type=RHF/CANONICAL  
 Redundancy group numbers read from rec  2100.2  Type=RHF/RHF  

 DUMP ORBITAL  1.1 AS ORBITAL    1  occ=    2.0000  eig=  -20.5412  GROUP=   2
 DUMP ORBITAL  2.1 AS ORBITAL    2  occ=    2.0000  eig=  -11.2657  GROUP=   2
 DUMP ORBITAL  3.1 AS ORBITAL    3  occ=    2.0000  eig=   -1.3621  GROUP=   2
 DUMP ORBITAL  4.1 AS ORBITAL    4  occ=    2.0000  eig=   -0.9267  GROUP=   2
 DUMP ORBITAL  5.1 AS ORBITAL    5  occ=    2.0000  eig=   -0.6945  GROUP=   2
 DUMP ORBITAL  6.1 AS ORBITAL    6  occ=    2.0000  eig=   -0.6209  GROUP=   2
 DUMP ORBITAL  7.1 AS ORBITAL    7  occ=    2.0000  eig=   -0.5957  GROUP=   2
 DUMP ORBITAL  8.1 AS ORBITAL    8  occ=    2.0000  eig=   -0.4979  GROUP=   2
 DUMP ORBITAL  9.1 AS ORBITAL    9  occ=    2.0000  eig=   -0.4449  GROUP=   2

 Total charge:      18.000000
 Frequency information read from record  5400.2

 **********************************************************************************************************************************

 HF/6-311G(D,P)//HF/6-311G(D,P) energy=   -115.075812015862

    OPTG(HF-SCF)          HF-SCF
   -115.07581202   -114.87974572
 **********************************************************************************************************************************
 Molpro calculation terminated
