
 Working directory              : /tmp/lme/molpro.HRMSnzku0d/
 Global scratch directory       : /tmp/lme/molpro.HRMSnzku0d/
 Wavefunction directory         : /home/lme/wfu/
 Main file repository           : /tmp/lme/molpro.HRMSnzku0d/

 id        : liedlgroup

 Nodes     nprocs
 sv1-c724     6
 GA implementation: MPI file
 GA implementation (serial work in mppx): MPI file

 Using customized tuning parameters: mindgm=1; mindgv=20; mindgc=4; mindgr=1; noblas=0; minvec=7
 default implementation of scratch files=sf  


 Variables initialized (1025), CPU time= 0.01 sec
 memory, 200, m                                                                  ! Memory Requirements
 gthresh, optgrad=1.d-7,twoint=1.d-14,prefac=1.d-16                            ! Guntram Rezept um numerischen Schmutz zu entfernen
 orient,mass
 geometry = {
  H,    0.7493682,    0.0000000,    0.4424329
  O,    0.0000000,    0.0000000,   -0.1653507
  H,   -0.7493682,    0.0000000,    0.4424329
 }
 
 mass, iso
 basis=6-311g(d,p)
 
 {hf
 start,atden}
 
 optg
 {frequencies, symm=auto, print=0,analytical}
 put,molden,h2o_hf.molden
 Commands initialized (840), CPU time= 0.01 sec, 684 directives.
 Default parameters read. Elapsed time= 0.07 sec

 Checking input...
 Passed
1


                                         ***  PROGRAM SYSTEM MOLPRO  ***
                                       Copyright, TTI GmbH Stuttgart, 2015
                                    Version 2022.3 linked Wed Nov 30 12:40:34 2022


 **********************************************************************************************************************************
 LABEL *                                                                                 
  (6 PROC) 64 bit mpp version                                                            DATE: 25-Aug-25          TIME: 21:28:29  
 **********************************************************************************************************************************

 SHA1:             e31ec9a5ea85254ab76f59d122cbdd51c71cf98b
 **********************************************************************************************************************************

 Memory per process:       200 MW
 Total memory per node:   1200 MW

 GA preallocation disabled
 GA check disabled

 Variable memory set to 200.0 MW


 THRESHOLDS:

 ZERO    =  1.00D-12  ONEINT  =  1.00D-12  TWOINT  =  1.00D-14  PREFAC  =  1.00D-16  XXXXXX  =  1.00D-09  EORDER  =  1.00D-04
 ENERGY  =  0.00D+00  ETEST   =  0.00D+00  EDENS   =  0.00D+00  THRDEDEF=  1.00D-06  GRADIENT=  1.00D-05  STEP    =  1.00D-03
 ORBITAL =  1.00D-05  CIVEC   =  1.00D-05  COEFF   =  1.00D-04  PRINTCI =  5.00D-02  PUNCHCI =  9.90D+01  OPTGRAD =  1.00D-07
 OPTENERG=  1.00D-06  OPTSTEP =  3.00D-04  THRGRAD =  1.00D-10  COMPRESS=  1.00D-11  VARMIN  =  1.00D-07  VARMAX  =  1.00D-03
 THRDOUB =  0.00D+00  THRDIV  =  1.00D-05  THRRED  =  1.00D-07  THRPSP  =  1.00D+00  THRDC   =  1.00D-10  THRCS   =  1.00D-10
 THRNRM  =  1.00D-08  THREQ   =  0.00D+00  THRDE   =  1.00D+00  THRREF  =  1.00D-05  SPARFAC =  1.00D+00  THRDLP  =  1.00D-07
 THRDIA  =  1.00D-10  THRDLS  =  1.00D-07  THRGPS  =  0.00D+00  THRKEX  =  0.00D+00  THRDIS  =  2.00D-01  THRVAR  =  1.00D-10
 THRLOC  =  1.00D-06  THRGAP  =  1.00D-06  THRLOCT = -1.00D+00  THRGAPT = -1.00D+00  THRORB  =  1.00D-06  THRMLTP =  0.00D+00
 THRCPQCI=  1.00D-10  KEXTA   =  0.00D+00  THRCOARS=  0.00D+00  SYMTOL  =  1.00D-06  GRADTOL =  1.00D-06  THROVL  =  1.00D-08
 THRORTH =  1.00D-08  THRDLOVL= -1.00D+00  GRID    =  1.00D-06  GRIDMAX =  1.00D-03  DTMAX   =  0.00D+00  THROCCDE=  1.00D-01
 THROCCDE=  1.00D-01  THRPRINT=  2.50D-01

 ZCENTRE=MASS


 Geometry recognized as XYZ



 Using masses of most abundant isotopes

 **********************************************************************************************************************************
 SETTING BASIS          =    6-311G(D,P)


 Recomputing integrals since basis changed


 Using spherical harmonics

 Library entry H      S 6-311G               selected for orbital group  1
 Library entry H      P 6-311G**             selected for orbital group  1
 Library entry O      S 6-311G               selected for orbital group  2
 Library entry O      P 6-311G               selected for orbital group  2
 Library entry O      D 6-311G*              selected for orbital group  2


 PROGRAM * SEWARD (Integral evaluation for generally contracted gaussian basis sets)     Author: Roland Lindh, 1990

 Geometry written to block  1 of record 700

 Orientation using atomic masses  
 Molecule type: Asymmetric top,     Order of principal axis = 2
 Symmetry elements: X,Y
 Rotational constants:     281.8391796    764.2747781    446.4898054 GHz

 Point group  C2v 



 ATOMIC COORDINATES

 NR  ATOM    CHARGE       X              Y              Z

   1  H       1.00    0.000000000    1.416100665    1.020005300
   2  H       1.00    0.000000000   -1.416100665    1.020005300
   3  O       8.00    0.000000000    0.000000000   -0.128539247

 Bond lengths in Bohr (Angstrom)

 1-3  1.823319958  2-3  1.823319958
     ( 0.964859370)     ( 0.964859370)

 Bond angles

  1-3-2  101.91165288

 NUCLEAR CHARGE:                   10
 NUMBER OF PRIMITIVE AOS:          48
 NUMBER OF SYMMETRY AOS:           47
 NUMBER OF CONTRACTIONS:           30   (   14A1  +    5B1  +    9B2  +    2A2  )
 NUMBER OF INNER CORE ORBITALS:     0   (    0A1  +    0B1  +    0B2  +    0A2  )
 NUMBER OF OUTER CORE ORBITALS:     1   (    1A1  +    0B1  +    0B2  +    0A2  )
 NUMBER OF VALENCE ORBITALS:        6   (    3A1  +    1B1  +    2B2  +    0A2  )


 NUCLEAR REPULSION ENERGY    9.12828373

 Eigenvalues of metric

         1 0.182E-01 0.902E-01 0.115E+00 0.147E+00 0.292E+00 0.447E+00 0.611E+00 0.820E+00
         2 0.215E+00 0.458E+00 0.907E+00 0.120E+01 0.227E+01
         3 0.422E-01 0.986E-01 0.128E+00 0.392E+00 0.553E+00 0.846E+00 0.122E+01 0.154E+01
         4 0.659E+00 0.129E+01


 Contracted 2-electron integrals neglected if value below      1.0D-14
 AO integral compression algorithm  1   Integral accuracy      1.0D-14

     1.573 MB (compressed) written to integral file (100.0%)

     Node minimum: 0.262 MB, node maximum: 0.262 MB


 NUMBER OF SORTED TWO-ELECTRON INTEGRALS:       4884.     BUFFER LENGTH:  32768
 NUMBER OF SEGMENTS:   1  SEGMENT LENGTH:       4884      RECORD LENGTH: 524288

 Memory used in sort:       0.56 MW

 SORT1 READ       47899. AND WROTE        4383. INTEGRALS IN      1 RECORDS. CPU TIME:     0.01 SEC, REAL TIME:     0.02 SEC
 SORT2 READ       30106. AND WROTE       32916. INTEGRALS IN      6 RECORDS. CPU TIME:     0.01 SEC, REAL TIME:     0.01 SEC

 Node minimum:        4832.  Node maximum:        6144. integrals

 OPERATOR DM      FOR CENTER  0  COORDINATES:    0.000000    0.000000    0.000000


 **********************************************************************************************************************************
 DATASETS  * FILE   NREC   LENGTH (MB)   RECORD NAMES
              1      18       28.60       500      610      700      900      950      970     1000      129      960     1100   
                                          VAR    BASINP    GEOM    SYMINP    ZMAT    AOBASIS   BASIS     P2S    ABASIS      S 
                                         1400     1410     1200     1210     1080     1600     1650     1700   
                                           T        V       H0       H01     AOSYM     SMH    MOLCAS    OPER   

 PROGRAMS   *        TOTAL       INT
 CPU TIMES  *         0.34      0.22
 REAL TIME  *         0.43 SEC
 DISK USED  *        28.89 MB (local),      197.64 MB (total)
 GA USED    *         0.00 MB       (max)       0.00 MB       (current)
 **********************************************************************************************************************************


 Program * Restricted Hartree-Fock

 Orbital guess generated from atomic densities.

 Initial occupancy:   3   1   1   0

 NELEC=   10   SYM=1   MS2= 0   THRE=1.0D-08   THRD=1.0D-06   THRG=1.0D-06  HFMA2=F  DIIS_START=2   DIIS_MAX=10   DIIS_INCORE=F

 Level shifts:    0.00 (CLOSED)    0.00 (OPEN)    0.30 (GAP_MIN)

 ITER           ETOT              DE          GRAD        DDIFF     DIIS  NEXP   TIME(IT)  TIME(TOT)  DIAG
   1      -76.00566839     -76.00566839     0.00D+00     0.15D+00     0     0       0.01      0.01    start
   2      -76.03579839      -0.03013001     0.33D-01     0.25D-01     1     0       0.00      0.01    diag
   3      -76.04538732      -0.00958893     0.19D-01     0.83D-02     2     0       0.00      0.01    diag
   4      -76.04560181      -0.00021449     0.20D-02     0.15D-02     3     0       0.00      0.01    diag
   5      -76.04562339      -0.00002158     0.54D-03     0.62D-03     4     0       0.00      0.01    diag
   6      -76.04562412      -0.00000073     0.87D-04     0.10D-03     5     0       0.00      0.01    diag
   7      -76.04562414      -0.00000002     0.15D-04     0.19D-04     6     0       0.00      0.01    diag
   8      -76.04562414      -0.00000000     0.17D-05     0.24D-05     7     0       0.00      0.01    fixocc
   9      -76.04562414      -0.00000000     0.14D-06     0.32D-06     8     0       0.00      0.01    diag
  10      -76.04562414      -0.00000000     0.23D-07     0.37D-07     0     0       0.00      0.01    diag/orth

 Final occupancy:   3   1   1   0

 !RHF STATE 1.1 Energy                -76.045624140596
  RHF One-electron energy            -123.026544740897
  RHF Two-electron energy              37.852636872311
  RHF Kinetic energy                   76.033209807746
  RHF Nuclear energy                    9.128283727990
  RHF Virial quotient                  -1.000163275138

 !RHF STATE 1.1 Dipole moment           0.00000000     0.00000000     0.86966284
 Dipole moment /Debye                   0.00000000     0.00000000     2.21046246

 Orbital energies:

           1.1          2.1          3.1          4.1          5.1
    -20.547738    -1.339565    -0.575739     0.148652     0.616281

           1.2          2.2          3.2
     -0.500192     1.003349     1.700467

           1.3          2.3          3.3
     -0.697402     0.216514     0.558138

           1.4          2.4
      1.522025     3.534487


 HOMO      1.2    -0.500192 =     -13.6109eV
 LUMO      4.1     0.148652 =       4.0450eV
 LUMO-HOMO         0.648844 =      17.6560eV

 Orbitals saved in record  2100.2


 **********************************************************************************************************************************
 DATASETS  * FILE   NREC   LENGTH (MB)   RECORD NAMES
              1      18       28.60       500      610      700      900      950      970     1000      129      960     1100   
                                          VAR    BASINP    GEOM    SYMINP    ZMAT    AOBASIS   BASIS     P2S    ABASIS      S 
                                         1400     1410     1200     1210     1080     1600     1650     1700   
                                           T        V       H0       H01     AOSYM     SMH    MOLCAS    OPER   

              2       4        0.38       700     1000      520     2100   
                                         GEOM     BASIS   MCVARS     RHF  

 PROGRAMS   *        TOTAL    HF-SCF       INT
 CPU TIMES  *         0.36      0.02      0.22
 REAL TIME  *         0.46 SEC
 DISK USED  *        29.04 MB (local),      198.59 MB (total)
 GA USED    *         0.00 MB       (max)       0.00 MB       (current)
 **********************************************************************************************************************************


 PROGRAM * OPT (Geometry optimization)     Authors: F. Eckert and H.-J. Werner


 BFGS update of hessian

 *** Long output written to logfile /home/lme/overlap_integral_gaussian/molpro_files/h2o/hf/h2o_hf.log ***


 Geometry optimization using default procedure for command HF-SCF

 Geometry written to block  1 of record 700

 Entering BMAT geometry-optimization, modelhes=F
 Optimization method: RF

 ITER.   ENERGY(OLD)    ENERGY(NEW)      DE          GRADMAX     GRADNORM    GRADRMS     STEPMAX     STEPLEN     STEPRMS   CPU-time
   1   -76.04562414   -76.04695208    -0.00132794  0.03779954  0.05154852  0.01718284  0.03585390  0.04907859  0.02833553      0.27
   2   -76.04695208   -76.04701060    -0.00005852  0.00275352  0.00482651  0.00160884  0.01218939  0.02128403  0.01228834      0.52
   3   -76.04701060   -76.04701203    -0.00000143  0.00042813  0.00073212  0.00024404  0.00226177  0.00385054  0.00222311      0.79
   4   -76.04701203   -76.04701203    -0.00000000  0.00001438  0.00001763  0.00000588  0.00003244  0.00005111  0.00002951      1.08
   5   -76.04701203   -76.04701203    -0.00000000  0.00000080  0.00000119  0.00000040  0.00000071  0.00000114  0.00000066      1.36
   6   -76.04701203   -76.04701203     0.00000000  0.00000012  0.00000018  0.00000006  0.00000009  0.00000015  0.00000009      1.64
   7   -76.04701203   -76.04701203    -0.00000000  0.00000008  0.00000012  0.00000004  0.00000004  0.00000006  0.00000004      1.92

 END OF GEOMETRY OPTIMIZATION.

 Geometry written to block  1 of record 700

 Recomputing wavefunction for reoriented structure

 Current geometry (xyz format, in Angstrom)

    3
 HF-SCF000/6-311G(D,P)  ENERGY=-76.04701203
 H          0.0000000000        0.7488258612        0.5060473347
 O          0.0000000000        0.0000000000       -0.0637711816
 H          0.0000000000       -0.7488258612        0.5060473347

 **********************************************************************************************************************************


 **********************************************************************************************************************************
 DATASETS  * FILE   NREC   LENGTH (MB)   RECORD NAMES
              1      18       28.60       500      610      700      900      950      970     1000      129      960     1100   
                                          VAR    BASINP    GEOM    SYMINP    ZMAT    AOBASIS   BASIS     P2S    ABASIS      S 
                                         1400     1410     1200     1210     1080     1600     1650     1700   
                                           T        V       H0       H01     AOSYM     SMH    MOLCAS    OPER   

              2       4        0.38       700     1000      520     2100   
                                         GEOM     BASIS   MCVARS     RHF  

 PROGRAMS   *        TOTAL      OPTG    HF-SCF       INT
 CPU TIMES  *         2.50      2.13      0.02      0.22
 REAL TIME  *         2.47 SEC
 DISK USED  *        29.05 MB (local),      198.61 MB (total)
 SF USED    *         0.03 MB
 GA USED    *         0.00 MB       (max)       0.00 MB       (current)
 **********************************************************************************************************************************


 PROGRAM * HESSIAN

 PROGRAM * MCKINLEY (Hessian of the energy)     Author: A. Bernhardsson, R. Lindh

 Orbitals from record         2100.2

 Number of closed-shell orbitals:  5 (  3  1  1  0 )
 Number of occupied orbitals:      5 (  3  1  1  0 )

 Number of electrons= 10     Singlet     Space symmetry=1      Wavefunction type: CLOSED          


 McKinley needed      0.58 seconds of CPU time

 Entering CPHF calculation

 CPHF needed  64 iterations for  9 perturbations.  Total CPU time:    0.01 sec


 HF-SCF hessian saved to record  5300.2

 PROGRAM * FREQUENCIES (Calculation of harmonic vibrational spectra for HF-SCF)


 Permanent Dipole Moment [debye]
 1-3    0.000000    0.000000    0.000000

 Dipole Moment Norm    0.0000000 [debye]

 Dipole Moment Derivatives [debye/ang]
              1             2             3             4             5             6             7             8
    1    0.00000000    0.00000000    0.00000000    0.00000000    0.00000000    0.00000000    0.00000000    0.00000000
    2    0.00000000    0.00000000    0.00000000    0.00000000    0.00000000    0.00000000    0.00000000    0.00000000
    3    0.00000000    0.00000000    0.00000000    0.00000000    0.00000000    0.00000000    0.00000000    0.00000000
              9
    1    0.00000000
    2    0.00000000
    3    0.00000000

 Projecting out rotations and translations

 Force Constants (Second Derivatives of the Energy) in [a.u.]
                             HX1         HY1         HZ1         OX2         OY2     
           HX1          -0.0000000
           HY1           0.0000000   0.4354121
           HZ1           0.0000000   0.2731540   0.2504279
           OX2           0.0000000   0.0000000   0.0000000   0.0000000
           OY2           0.0000000  -0.4016338  -0.3056229   0.0000000   0.8032675
           OZ2           0.0000000  -0.2406850  -0.2682922   0.0000000  -0.0000000
           HX3          -0.0000000   0.0000000   0.0000000   0.0000000   0.0000000
           HY3           0.0000000  -0.0337783   0.0324690   0.0000000  -0.4016338
           HZ3           0.0000000  -0.0324690   0.0178643   0.0000000   0.3056229
                             OZ2         HX3         HY3         HZ3     
           OZ2           0.5365843
           HX3           0.0000000  -0.0000000
           HY3           0.2406850   0.0000000   0.4354121
           HZ3          -0.2682922   0.0000000  -0.2731540   0.2504279


 Atomic Masses
 1-3    1.007825   15.994910    1.007825

 Mass weighted Second Derivative Matrix
                             HX1         HY1         HZ1         OX2         OY2     
           HX1          -0.0000000
           HY1           0.0000000   0.4320315
           HZ1           0.0000000   0.2710331   0.2484835
           OX2           0.0000000   0.0000000   0.0000000   0.0000000
           OY2           0.0000000  -0.1000338  -0.0761206   0.0000000   0.0502202
           OZ2           0.0000000  -0.0599467  -0.0668228   0.0000000  -0.0000000
           HX3          -0.0000000   0.0000000   0.0000000   0.0000000   0.0000000
           HY3           0.0000000  -0.0335161   0.0322169   0.0000000  -0.1000338
           HZ3           0.0000000  -0.0322169   0.0177256   0.0000000   0.0761206
                             OZ2         HX3         HY3         HZ3     
           OZ2           0.0335472
           HX3           0.0000000  -0.0000000
           HY3           0.0599467   0.0000000   0.4320315
           HZ3          -0.0668228   0.0000000  -0.2710331   0.2484835


 Mass Weighted 2nd Derivative Matrix Eigenvalues
 1-9    0.000000    0.000000    0.000000    0.000000    0.000000    0.000000    0.116021    0.649283    0.679493

 Mass Weighted 2nd Derivative Matrix Eigenvectors
              1             2             3             4             5             6             7             8
    1    0.00000000    0.00000000    0.89244761   -0.45115105    0.00000000    0.00000000    0.00000000    0.00000000
    2   -0.38238913    0.05263418    0.00000000    0.00000000    0.23896709   -0.02566057   -0.41506016    0.57247276
    3    0.43394797    0.24804947    0.00000000    0.00000000   -0.26660058    0.25542280    0.53948841    0.39114551
    4    0.50440055    0.29454982    0.00000000    0.00000000    0.69771682   -0.41474296    0.00000000    0.00000000
    5   -0.12707858    0.31886909    0.00000000    0.00000000    0.42741140    0.79093916    0.00000000    0.00000000
    6   -0.10616142    0.84469652    0.00000000    0.00000000   -0.37269981   -0.15619698   -0.27084061   -0.19636768
    7    0.00000000    0.00000000    0.45115105    0.89244761    0.00000000    0.00000000    0.00000000    0.00000000
    8   -0.38238913    0.05263418    0.00000000    0.00000000    0.23896709   -0.02566057    0.41506016   -0.57247276
    9   -0.48724443    0.17601547    0.00000000    0.00000000    0.07949324   -0.33383873    0.53948841    0.39114551
              9
    1    0.00000000
    2    0.54152051
    3    0.41206965
    4    0.00000000
    5   -0.27186078
    6    0.00000000
    7    0.00000000
    8    0.54152051
    9   -0.41206965

   Low Vibration      Wavenumber
        Nr             [1/cm] 
        1                0.00
        2                0.00
        3                0.00
        4                0.00
        5                0.00
        6                0.00

     Vibration        Wavenumber
        Nr             [1/cm] 
        1             1750.94
        2             4142.11
        3             4237.38

 FREQUENCIES * CALCULATION OF NORMAL MODES FOR HF-SCF


 Atomic Coordinates

  Nr  Atom  Charge       X              Y              Z

   1   H     1.00    0.000000000    1.415075793    0.956290869
   2   O     8.00    0.000000000    0.000000000   -0.120510068
   3   H     1.00    0.000000000   -1.415075793    0.956290869

 Gradient norm at reference geometry: 0.11967D-06

 Normal Modes

                              1 A1        2 A1        3 B2 
 Wavenumbers [cm-1]         1750.94     4142.11     4237.38
 Intensities [km/mol]          0.00        0.00        0.00
 Intensities [relative]        0.00        0.00        0.00
           HX1              0.00000    -0.00000     0.00000
           HY1             -0.41345     0.57025     0.53941
           HZ1              0.53739     0.38962     0.41047
           OX2             -0.00000     0.00000     0.00000
           OY2             -0.00000    -0.00000    -0.06798
           OZ2             -0.06772    -0.04910     0.00000
           HX3             -0.00000    -0.00000     0.00000
           HY3              0.41345    -0.57025     0.53941
           HZ3              0.53739     0.38962    -0.41047


 Normal Modes of low/zero frequencies

                                  1           2           3           4           5
 Wavenumbers [cm-1]            0.00        0.00        0.00        0.00        0.00
 Intensities [km/mol]          0.00        0.00        0.00        0.00        0.00
 Intensities [relative]        0.00        0.00        0.00        0.00        0.00
           HX1              0.00000     0.00000     0.88898    -0.44940     0.00000
           HY1             -0.38090     0.05243    -0.00000    -0.00000     0.23804
           HZ1              0.43226     0.24708    -0.00000    -0.00000    -0.26556
           OX2              0.12612     0.07365    -0.00000    -0.00000     0.17446
           OY2             -0.03177     0.07973    -0.00000    -0.00000     0.10687
           OZ2             -0.02654     0.21121    -0.00000    -0.00000    -0.09319
           HX3              0.00000     0.00000     0.44940     0.88898     0.00000
           HY3             -0.38090     0.05243    -0.00000    -0.00000     0.23804
           HZ3             -0.48535     0.17533    -0.00000    -0.00000     0.07918

                                  6
 Wavenumbers [cm-1]            0.00
 Intensities [km/mol]          0.00
 Intensities [relative]        0.00
           HX1             -0.00000
           HY1             -0.02556
           HZ1              0.25443
           OX2             -0.10370
           OY2              0.19777
           OZ2             -0.03906
           HX3              0.00000
           HY3             -0.02556
           HZ3             -0.33254


 Frequencies dumped to record   5400.2

 Zero point energy:  0.02307881 [H]     5065.21 [1/CM]       60.59 [KJ/MOL]
 Frequency information read from record  5400.2


 **********************************************************************************************************************************
 DATASETS  * FILE   NREC   LENGTH (MB)   RECORD NAMES
              1      18       28.60       500      610      700      900      950      970     1000      129      960     1100   
                                          VAR    BASINP    GEOM    SYMINP    ZMAT    AOBASIS   BASIS     P2S    ABASIS      S 
                                         1400     1410     1200     1210     1080     1600     1650     1700   
                                           T        V       H0       H01     AOSYM     SMH    MOLCAS    OPER   

              2       7        0.39       700     1000      520     2100     5300     5450     5400   
                                         GEOM     BASIS   MCVARS     RHF     HESS     NMOD     FREQ   

              4       5        0.04      4100     4000     4200     4300     4400   

 PROGRAMS   *        TOTAL      FREQ      OPTG    HF-SCF       INT
 CPU TIMES  *         3.10      0.60      2.13      0.02      0.22
 REAL TIME  *         2.80 SEC
 DISK USED  *        29.05 MB (local),      198.62 MB (total)
 SF USED    *         0.04 MB
 GA USED    *         0.00 MB       (max)       0.00 MB       (current)
 **********************************************************************************************************************************

 Dump information in style MOLDEN to h2o_hf.molden                                                                   

 Molecular orbitals read from record     2100.2  Type=RHF/CANONICAL  
 Occupation numbers read from record     2100.2  Type=RHF/RHF  
 Orbital energies read from record       2100.2  Type=RHF/CANONICAL  
 Redundancy group numbers read from rec  2100.2  Type=RHF/RHF  

 DUMP ORBITAL  1.1 AS ORBITAL    1  occ=    2.0000  eig=  -20.5413  GROUP=   2
 DUMP ORBITAL  2.1 AS ORBITAL    2  occ=    2.0000  eig=   -1.3491  GROUP=   2
 DUMP ORBITAL  1.3 AS ORBITAL    3  occ=    2.0000  eig=   -0.7172  GROUP=   2
 DUMP ORBITAL  3.1 AS ORBITAL    4  occ=    2.0000  eig=   -0.5729  GROUP=   2
 DUMP ORBITAL  1.2 AS ORBITAL    5  occ=    2.0000  eig=   -0.5007  GROUP=   2

 Total charge:      10.000000
 Frequency information read from record  5400.2

 **********************************************************************************************************************************

 HF/6-311G(D,P)//HF/6-311G(D,P) energy=    -76.047012027973

    OPTG(HF-SCF)          HF-SCF
    -76.04701203    -76.04562414
 **********************************************************************************************************************************
 Molpro calculation terminated
