[Molden Format]
[Molpro variables]
_NUMVAR=  1041.000000000000    
_AVOGAD= 0.6022140760000000E+24
_BOLTZ= 0.1380649000000000E-22
_CLIGHTSI=  299792458.0000000    
_JOULE= 0.4359744722207100E-17
_JPCAL=  4.184000000000000    
_PLANCK= 0.6626070150000000E-33
_BOHR= 0.5291772109030000E-10
_ECHARG= 0.1602176634000000E-18
_ENULL= 0.8854187812800001E-11
_MU= 0.1660539066600000E-26
_EMASS= 0.9109383701500001E-30
_AMU2AU=  1822.888486217313    
_CLIGHT=  29979245800.00000    
_EV= 0.3674932217565494E-01
_KJOULE= 0.3808798847133432E-03
_KJOULE/MOL= 0.3808798847133432E-03
_CM= 0.4556335252912009E-05
_CM-1= 0.4556335252912009E-05
_DEB2SI= 0.3335640951981520E-29
_KCAL= 0.1593601437640628E-02
_KCAL/MOL= 0.1593601437640628E-02
_KELVIN= 0.3166811563455608E-05
_HERTZ= 0.1519829846057038E-15
_HZ= 0.1519829846057038E-15
_TOA= 0.5291772109030000    
_TOANG= 0.5291772109030000    
_TORAD= 0.1745329251994330E-01
_TOCM=  219474.6313631965    
_TODEBYE=  2.541746473194078    
_TOE= 0.4803204712570263E-09
_TOEV=  27.21138624598803    
_TOHERTZ=  6579683920501656.    
_TOHZ=  6579683920501656.    
_TOK=  315775.0248040668    
_TOKCAL=  627.5094740630558    
_TOKELVIN=  315775.0248040668    
_TOKJ=  2625.499639479825    
_TOKJOULE=  2625.499639479825    
_TOKG= 0.1660539066600000E-26
_ANG=  1.889726124625770    
_ANGSTROM=  1.889726124625770    
_RPAREF=  0.000000000000000    
_RPADISS=  0.000000000000000    
_IGNORE_UNDEF=  2.000000000000000    
_STRICTCHECK=  0.000000000000000    
!SEWARD=  0.000000000000000    
!MULTI=  0.000000000000000    
!DFMULTI=  0.000000000000000    
_SEW_ONEEL=  0.000000000000000    
_CPPDONE=FALSE
_DKROLL_DONE=  0.000000000000000    
_FNUC_DONE=  0.000000000000000    
_FOCKDONE=TRUE
_GRADONE=FALSE
_HESSDONE=TRUE
_INTDONE=TRUE
_SCFDONE=TRUE
_MODUL_BLOCK=FALSE
_MODUL_SLATER=FALSE
_MODUL_MRCC=FALSE
_MODUL_NBO6=FALSE
_MODUL_NECI=FALSE
_MODUL_AIMS=TRUE
_MODUL_HDF5=FALSE
_MODUL_GECCO=FALSE
_ISWINDOWS=FALSE
_MRCC_EXEC=
_FITC_AO_SAVED=FALSE
_FITC_MO_SAVED=FALSE
_SHARED_FS=TRUE
_LSTYP=SEWARD
_INTYP=INTS
_GEOMTYP=ZMAT
_GRADTYP=ALASKA
_DIRECT=FALSE
_DKHO= -1.000000000000000    
_FNUC=  0.000000000000000    
_SYNCM=  0.000000000000000    
_BASIS=6-311G(D,P)
_ZCENTRE=MASS
_ZORIENT=  1.000000000000000    
_NELEC=  10.00000000000000    
!SPIN=  0.000000000000000    
_OPTCONV= 0.6491132925153903E-07
_QSDSTEP=  0.000000000000000    
_QSDIRC=  0.000000000000000    
_PROGRAM=FREQ
_CPUSTEP= 0.6000000000000001    
_SYSSTEP= 0.2000000000000002E-01
_WALLSTEP= 0.3300000000000000    
!DFSCF=  0.000000000000000    
!SCSGRD=  0.000000000000000    
_NCEN=  3.000000000000000    
_CPUTOT=  3.100000000000000    
_DFTEXFAC=  1.000000000000000    
_DMX=  0.000000000000000    
_DMY=  0.000000000000000    
_DMZ= 0.8410290242664547    
_DMX_SCF=  0.000000000000000    
_DMY_SCF=  0.000000000000000    
_DMZ_SCF= 0.8410290242664547    
_FREQUENCIES= 0.4156198715161856E-04
_HOMO=  1.200000000000000    
_EHOMO=-0.5006662376371370    
_LUMO=  4.100000000000000    
_ELUMO= 0.1525987420470125    
_ENERGY= -76.04701202797318    
_ENERGY_METHOD=HF
_ENERGY_BASIS=6-311G(D,P)
_GEOMETRY_METHOD=HF
_GEOMETRY_BASIS=6-311G(D,P)
_ENUC=  9.351279916496793    
_GRADENERG= -76.04701202797190    
_GRADEXFAC=  9999.000000000000    
_GRADMETHOD=  1.000000000000000    
_NMRMETHOD=  0.000000000000000    
_NMRMAGNET=  0.000000000000000    
_VIRIAL=-0.2264174027875180E-06
!GRID_FREEZE= -1.000000000000000    
!NEESE_INDEX=  0.000000000000000    
_ITERATIONS=  2.000000000000000    
_LASTNELEC=  10.00000000000000    
_LASTSPIN=  0.000000000000000    
_LASTSYM=  1.000000000000000    
_MPP_PROG=  1.000000000000000    
_MSNSTATES=  0.000000000000000    
_RS2PHASE=  0.000000000000000    
_IPROC_MPP=  0.000000000000000    
_IPROC_MPPX=  0.000000000000000    
_NPROC_MPP=  6.000000000000000    
_NPROC_MPPX=  6.000000000000000    
_NPROC_SMP=  6.000000000000000    
_NUMSTEP=  0.000000000000000    
_OPTCONVMX= 0.3970720127435071E-07
_OPTCONVRMS= 0.3747657342246738E-07
_OPTGRAD= 0.1196675900045786E-06
_OPTGRADMX= 0.7881296593126308E-07
_OPTGRADRMS= 0.3988919666819287E-07
_OPTSTEP=  7.000000000000000    
_ORBITAL=  2100.200000000000    
_PI=  3.141592653589793    
_SEIG_MIN= 0.1696961318930905E-01
_SEWPROP=TRUE
_STATUS=  1.000000000000000    
_SYSTOT= 0.5600000000000001    
_VERSION=  2022003.000000000    
_WALLTOT=  2.800000000000000    
_ZPE= 0.2307880923410482E-01
_DATE=25-Aug-25
_LASTORB=0
_OUTPUT=/home/lme/overlap_integral_gaussian/molpro_files/h2o/hf/h2o_hf.out
_PGROUP=C2v
_TIME=21:28:29
_LIBMOL=/usr/local/molpro/molpro_2022.3.0_sockets/lib/
_VIGRDC=  0.000000000000000    
!VIBCNT=  0.000000000000000    
!RGHFCNT=  0.000000000000000    
!SURFREC=  0.000000000000000    
!XSURFREC=  0.000000000000000    
!XPOLYREC=  0.000000000000000    
!ROTREC=  0.000000000000000    
!POLYREC=  0.000000000000000    
!DIPREC=  0.000000000000000    
!DIP4DREC=  0.000000000000000    
!DIPROT=  0.000000000000000    
!DIP4DROT=  0.000000000000000    
!PTREC=  0.000000000000000    
!PT4DREC=  0.000000000000000    
!VSCFREC=  0.000000000000000    
!VCIREC=  0.000000000000000    
!PVCIREC=  0.000000000000000    
!VMP2REC=  0.000000000000000    
!VMCSCFREC=  0.000000000000000    
!VMRCIREC=  0.000000000000000    
!VIBSTATEREC=  0.000000000000000    
!VIBSTATECNT=  0.000000000000000    
!VIBINFO=  0.000000000000000    
!GAREC=  0.000000000000000    
!SCFORB=  21002.00000000000    
!DEFCORE=  1.000000000000000    
!SCORE=  0.000000000000000    
!NEWMOL=  0.000000000000000    
!NEWSYM=  0.000000000000000    
_SLFILES=slscratch
_NGSSTO=  9.000000000000000    
_SIN=SIN
_COS=COS
_TAN=TAN
_ACOS=ACOS
_ASIN=ASIN
_ATAN=ATAN
_COSH=COSH
_SINH=SINH
_TANH=TANH
_ABS=ABS
_MOD=MOD
_ERF=ERF
_REFC=REFC
_ERFC=ERFC
_HYPOT=HYPOT
_J0=J0
_J1=J1
_JN=JN
_GAMMA=GAMMA
_LGAMMA=LGAMMA
_Y0=Y0
_Y1=Y1
_YN=YN
_EXP=EXP
_LOG=LOG
_LOG10=LOG10
_SQRT=SQRT
_INT=INT
_NINT=NINT
_MAX=MAX
_MIN=MIN
_COSMO=  0.000000000000000    
_COSMOIT=  0.000000000000000    
_COSMOES=  0.000000000000000    
_COSMOEDS=  0.000000000000000    
_COSMOEC=  0.000000000000000    
_COSMOEDCORR=  0.000000000000000    
_FEPSI=  1.000000000000000    
_SL_IsMM=  0.000000000000000    
_SL_NSYM=  4.000000000000000    
_SL_System_BitSw=  0.000000000000000    
_SL_Unique_atoms=  0.000000000000000    
_SL_GRAD=  0.000000000000000    
_SL_MAXUPD_Hess=  5.000000000000000    
_SL_N_PRINT_COD=  5.000000000000000    
_SL_PRINT_CODES=  0.000000000000000    
_SL_BasType=  0.000000000000000    
_SL_Energy_Pred=  0.000000000000000    
_SL_New_Coords=  0.000000000000000    
_SL_Total_Nuclea=  0.000000000000000    
_SL_Highest_Mltp=  0.000000000000000    
_SL_Ref_Geom=  0.000000000000000    
_SL_Symmetry_ope=  1.000000000000000    
_SL_agrad=  0.000000000000000    
_SL_GrdMax=  0.000000000000000    
_SL_GrdNorm=  0.000000000000000    
_SL_GrdRMS=  0.000000000000000    
_SL_Hss_Q=  0.000000000000000    
_SL_Hss_X=  0.000000000000000    
_SL_BMxOld=  0.000000000000000    
_SL_KtB=  0.000000000000000    
_SL_TROld=  0.000000000000000    
_SL_No_of_Intern=  0.000000000000000    
_SL_Hess=  0.000000000000000    
_SL_K=  0.000000000000000    
!LATTICE= -1.000000000000000    
!NEWLATTICE=  0.000000000000000    
!LATGRAD_VAR=FALSE
!SEW_LATTICE=  1.000000000000000    
!AIC_ONEEL=  0.000000000000000    
!LOCAL=  0.000000000000000    
!SAVEDOM= -1.000000000000000    
!RESTDOM= -1.000000000000000    
!SAVEDOM_HF= -1.000000000000000    
!RESTDOM_HF= -1.000000000000000    
!HESSREC=  5300.200000000000    
!FREQREC=  5400.200000000000    
!NMODREC=  5450.200000000000    
!GTASKS=  0.000000000000000    
!HTASKS=  0.000000000000000    
!SAVEDOM_EOM= -1.000000000000000    
!RESTDOM_EOM= -1.000000000000000    
!GRADSTATE= -1.000000000000000    
!DEBUG=  0.000000000000000    
!CFIT_CPHF=  0.000000000000000    
!RDOMAUX_CPHF=  0.000000000000000    
!THRAO_CPHF= 0.1000000000000000E-11
!THRMO_CPHF= 0.1000000000000000E-11
!THROV_CPHF= 0.1000000000000000E-11
!THRSW_CPHF= 0.1000000000000000E-11
!THRPROD_CPHF= 0.1000000000000000E-11
!THRAOPR_CPHF= 0.1000000000000000E-11
!CFIT_SCFGRD=  0.000000000000000    
!RDOMAUX_SCFGRD=  0.000000000000000    
!THRAO_SCFGRD= 0.1000000000000000E-11
!THRMO_SCFGRD= 0.1000000000000000E-11
!THROV_SCFGRD= 0.1000000000000000E-11
!THRSW_SCFGRD= 0.1000000000000000E-11
!THRPROD_SCFGRD= 0.1000000000000000E-11
!THRAOPR_SCFGRD= 0.1000000000000000E-11
!LOCFIT_SCF=  0.000000000000000    
!LOCFIT_MP2=  0.000000000000000    
_RIDOM=  0.000000000000000    
!CC2_METHOD=  0.000000000000000    
_BASIS2006=FALSE
_SVDDEL= -1.000000000000000    
_SVDDELA= -1.000000000000000    
_SVDDELP= -1.000000000000000    
_SVDDELF= -1.000000000000000    
_SVDDELS= -1.000000000000000    
_SVDDEL_ABS= -1.000000000000000    
_SVDDELA_ABS= -1.000000000000000    
_SVDDELP_ABS= -1.000000000000000    
_SVDDELF_ABS= -1.000000000000000    
_SVDDELS_ABS= -1.000000000000000    
_MAXBASIS=  0.000000000000000    
!OPT_CONICAL=  0.000000000000000    
!CLEARSP_JGRID=  0.000000000000000    
_GRDHYBR=  0.000000000000000    
_STATEGRAD=  1.000000000000000    
_4EXT_NDISKS=  1.000000000000000    
!EMBEDFLAG=  1.000000000000000    
!EMBED=FALSE
!EMBED_F12=FALSE
!EMBEDNUC=  0.000000000000000    
_EMBEDENERGY=  0.000000000000000    
!EMBED_DFC=FALSE
!NUM_VOIDS=  0.000000000000000    
_IBODY=  0.000000000000000    
_EMBE_CORR=  0.000000000000000    
!EMBED_PROJ=FALSE
!EMB_PROJ_ZMU=  1000000.000000000    
!CORRECTION_HF=  0.000000000000000    
!EMBED_AORB=  0.000000000000000    
!EMBED_NACORR=  0.000000000000000    
!EMBED_MP2=FALSE
!EMBED_TRUNC_PERTURBATION=FALSE
!EMBED_FROZEN=  0.000000000000000    
!EMBED_ACTIVE=  0.000000000000000    
_CHANGE_BASIS=FALSE
_RESTORE_BASIS=FALSE
_FIX_EMBED_GUESS=FALSE
_EMBED_SCF=FALSE
_HUZINAGA_T=FALSE
_HUZINAGA_F=FALSE
_HUZINAGA=FALSE
_HUZINAGA_CORRECT=FALSE
!FASTLATGRAD=  1.000000000000000    
!FASTVLAMBDA= -1.000000000000000    
!IFORCE= -1.000000000000000    
!USESYM= -1.000000000000000    
_SINDEX=  0.000000000000000    
_AVDOM_OSV=  0.000000000000000    
_AVDOM_PNO=  0.000000000000000    
_AVDOM_PAO=  0.000000000000000    
_AVDOM_LMO=  0.000000000000000    
_CC2OSV_FLAG=  0.000000000000000    
_EOMCCSD_CONV=FALSE
_TMADC2_FLAG=FALSE
_PROPADC2_FLAG=FALSE
_LEN_VirQ=  0.000000000000000    
_GRDCC2LR_FLAG=FALSE
_GRDADC2_FLAG=FALSE
_RO_VGLOBAL=  0.000000000000000    
_OPT=FALSE
_FREQ=FALSE
_HESS=FALSE
_CMRCC_callName=EMPTY
_CMRCC_callCount=  0.000000000000000    
_GECCO_CIROOT=  1.000000000000000    
_SYM_CATION=  2.000000000000000    
_MON_A=FALSE
_MON_B=FALSE
GX1=  0.000000000000000    
GY1= 0.7488258611786303    
GZ1= 0.5060473346981260    
GX2=  0.000000000000000    
GY2=  0.000000000000000    
GZ2=-0.6377118159366182E-01
GX3=  0.000000000000000    
GY3=-0.7488258611786303    
GZ3= 0.5060473346981260    
HX1=  0.000000000000000    
HY1=  1.415075792664648    
HZ1= 0.9562908686762898    
OX2=  0.000000000000000    
OY2=  0.000000000000000    
OZ2=-0.1205100678557968    
HX3=  0.000000000000000    
HY3= -1.415075792664648    
HZ3= 0.9562908686762898    
[Atoms] Angs
H     1    1         0.0000000000        0.7488258612        0.5060473347
O     2    8         0.0000000000        0.0000000000       -0.0637711816
H     3    1         0.0000000000       -0.7488258612        0.5060473347
[GTO]
   1 0
 s    3  1.00
  0.3386500000D+02  0.2549381454D-01
  0.5094790000D+01  0.1903731086D+00
  0.1158790000D+01  0.8521614860D+00
 s    1  1.00
  0.3258400000D+00  0.1000000000D+01
 s    1  1.00
  0.1027410000D+00  0.1000000000D+01
 p    1  1.00
  0.7500000000D+00  0.1000000000D+01
  
   3 0
 s    3  1.00
  0.3386500000D+02  0.2549381454D-01
  0.5094790000D+01  0.1903731086D+00
  0.1158790000D+01  0.8521614860D+00
 s    1  1.00
  0.3258400000D+00  0.1000000000D+01
 s    1  1.00
  0.1027410000D+00  0.1000000000D+01
 p    1  1.00
  0.7500000000D+00  0.1000000000D+01
  
   2 0
 s    6  1.00
  0.8588500000D+04  0.1895150083D-02
  0.1297230000D+04  0.1438590063D-01
  0.2992960000D+03  0.7073200310D-01
  0.8737710000D+02  0.2400010105D+00
  0.2567890000D+02  0.5947970261D+00
  0.3740040000D+01  0.2808020123D+00
 s    3  1.00
  0.4211750000D+02  0.1138890124D+00
  0.9628370000D+01  0.9208111006D+00
  0.2853320000D+01 -0.3274470358D-02
 s    1  1.00
  0.9056610000D+00  0.1000000000D+01
 s    1  1.00
  0.2556110000D+00  0.1000000000D+01
 p    3  1.00
  0.4211750000D+02  0.3651139738D-01
  0.9628370000D+01  0.2371529830D+00
  0.2853320000D+01  0.8197019412D+00
 p    1  1.00
  0.9056610000D+00  0.1000000000D+01
 p    1  1.00
  0.2556110000D+00  0.1000000000D+01
 d    1  1.00
  0.1292000000D+01  0.1000000000D+01


[MO]
 Sym=      1.1
 Ene=     -20.5413
 Spin= Alpha
 Occup=    2.000000
1 0.000208611719114
2 0.000083188970066
3 0.000098883388231
4 0.0
5 -0.000070287126220
6 -0.000010886940868
7 0.000208611719114
8 0.000083188970066
9 0.000098883388231
10 0.0
11 0.000070287126220
12 -0.000010886940868
13 0.55142989311542
14 0.47167849780168
15 0.005566602426735
16 -0.000465163384778
17 0.0
18 0.0
19 0.001785222707735
20 0.0
21 0.0
22 -0.000617652351322
23 0.0
24 0.0
25 0.000094627468065
26 0.000115378674390
27 -0.000097568805140
28 -0.000017809869250
29 0.0
30 0.0
31 0.0
 Sym=      2.1
 Ene=      -1.3491
 Spin= Alpha
 Occup=    2.000000
1 0.096562570103556
2 0.081307882704986
3 -0.002674934654127
4 0.0
5 -0.023857744024415
6 -0.014411960121079
7 0.096562570103556
8 0.081307882704986
9 -0.002674934654127
10 0.0
11 0.023857744024415
12 -0.014411960121079
13 -0.11335954076120
14 -0.18935716302061
15 0.53787734995689
16 0.37190453722689
17 0.0
18 0.0
19 0.038031296069788
20 0.0
21 0.0
22 0.063144948624853
23 0.0
24 0.0
25 0.020779460481350
26 -0.008344510844103
27 0.005582217431774
28 0.002762293412329
29 0.0
30 0.0
31 0.0
 Sym=      1.3
 Ene=      -0.7172
 Spin= Alpha
 Occup=    2.000000
1 0.15126546074902
2 0.21225549374957
3 0.054487545344085
4 0.0
5 -0.018707188757712
6 -0.025670992724142
7 -0.15126546074902
8 -0.21225549374957
9 -0.054487545344085
10 0.0
11 -0.018707188757712
12 0.025670992724142
13 0.0
14 0.0
15 0.0
16 0.0
17 0.0
18 0.22737906932338
19 0.0
20 0.0
21 0.34886177645479
22 0.0
23 0.0
24 0.21178432693807
25 0.0
26 0.0
27 0.0
28 0.0
29 0.0
30 0.0
31 0.029327229557195
 Sym=      3.1
 Ene=      -0.5729
 Spin= Alpha
 Occup=    2.000000
1 0.087465323252503
2 0.14600256451795
3 0.027263582455398
4 0.0
5 -0.029719095447318
6 0.009565656208023
7 0.087465323252503
8 0.14600256451795
9 0.027263582455398
10 0.0
11 0.029719095447318
12 0.009565656208023
13 0.038140090898469
14 0.064860195026695
15 -0.19645676062643
16 -0.33484860153210
17 0.0
18 0.0
19 0.25569174926473
20 0.0
21 0.0
22 0.37818686051085
23 0.0
24 0.0
25 0.33999194089190
26 -0.012876260543102
27 -0.004108841139650
28 0.016985101682752
29 0.0
30 0.0
31 0.0
 Sym=      1.2
 Ene=      -0.5007
 Spin= Alpha
 Occup=    2.000000
1 0.0
2 0.0
3 0.0
4 0.031532229444265
5 0.0
6 0.0
7 0.0
8 0.0
9 0.0
10 0.031532229444265
11 0.0
12 0.0
13 0.0
14 0.0
15 0.0
16 0.0
17 0.29169578205048
18 0.0
19 0.0
20 0.43668228477889
21 0.0
22 0.0
23 0.46587791769413
24 0.0
25 0.0
26 0.0
27 0.0
28 0.0
29 0.0
30 0.017140433237527
31 0.0
 Sym=      4.1
 Ene=       0.1526
 Spin= Alpha
 Occup=    0.000000
1 0.034136696585521
2 -0.068275341331237
3 0.84442405424370
4 0.0
5 0.005125120682479
6 -0.003810148625038
7 0.034136696585521
8 -0.068275341331237
9 0.84442405424370
10 0.0
11 -0.005125120682479
12 -0.003810148625038
13 0.033502774874000
14 0.054636207238546
15 -0.10270000245534
16 -0.85277765656817
17 0.0
18 0.0
19 -0.071584835268411
20 0.0
21 0.0
22 -0.11395099274164
23 0.0
24 0.0
25 -0.19992340445851
26 0.005458388339250
27 -0.000897655011343
28 -0.004560733327907
29 0.0
30 0.0
31 0.0
 Sym=      2.3
 Ene=       0.2186
 Spin= Alpha
 Occup=    0.000000
1 0.023623955809143
2 -0.13011046843391
3 1.58003259705792
4 0.0
5 0.008852264867123
6 0.008184796239660
7 -0.023623955809143
8 0.13011046843391
9 -1.58003259705792
10 0.0
11 0.008852264867123
12 -0.008184796239660
13 0.0
14 0.0
15 0.0
16 0.0
17 0.0
18 -0.12023558757538
19 0.0
20 0.0
21 -0.12746364330539
22 0.0
23 0.0
24 -0.49546846991925
25 0.0
26 0.0
27 0.0
28 0.0
29 0.0
30 0.0
31 -0.005536346080004
 Sym=      3.3
 Ene=       0.5772
 Spin= Alpha
 Occup=    0.000000
1 0.079808493031553
2 1.48644325832709
3 -0.72178507412416
4 0.0
5 -0.026218362519391
6 0.002722997982848
7 -0.079808493031553
8 -1.48644325832709
9 0.72178507412416
10 0.0
11 -0.026218362519391
12 -0.002722997982848
13 0.0
14 0.0
15 0.0
16 0.0
17 0.0
18 -0.12034088512971
19 0.0
20 0.0
21 -0.18575152018079
22 0.0
23 0.0
24 -1.17096359535286
25 0.0
26 0.0
27 0.0
28 0.0
29 0.0
30 0.0
31 0.013019116005241
 Sym=      5.1
 Ene=       0.6207
 Spin= Alpha
 Occup=    0.000000
1 0.062656143850678
2 1.85072038292284
3 -0.60057554319305
4 0.0
5 -0.036897888147223
6 -0.044616775026549
7 0.062656143850678
8 1.85072038292284
9 -0.60057554319305
10 0.0
11 0.036897888147223
12 -0.044616775026549
13 0.033596398425185
14 0.059028160242098
15 -0.13501014012620
16 -1.48864327055255
17 0.0
18 0.0
19 -0.096016760178615
20 0.0
21 0.0
22 -0.18558724012507
23 0.0
24 0.0
25 -1.08845234554551
26 -0.001401351054814
27 0.012669344629748
28 -0.011267993574934
29 0.0
30 0.0
31 0.0
 Sym=      6.1
 Ene=       0.9975
 Spin= Alpha
 Occup=    0.000000
1 -0.033765167621131
2 -0.57477409191690
3 -0.11535567202901
4 0.0
5 0.15198466059689
6 0.099404958630280
7 -0.033765167621131
8 -0.57477409191690
9 -0.11535567202901
10 0.0
11 -0.15198466059689
12 0.099404958630280
13 -0.012908024535954
14 -0.024137174518375
15 0.046479326998331
16 0.95095972454907
17 0.0
18 0.0
19 -0.23503529149760
20 0.0
21 0.0
22 -0.73590220272919
23 0.0
24 0.0
25 1.56770141195982
26 -0.013062680978933
27 0.017642499993990
28 -0.004579819015056
29 0.0
30 0.0
31 0.0
 Sym=      2.2
 Ene=       1.0031
 Spin= Alpha
 Occup=    0.000000
1 0.0
2 0.0
3 0.0
4 -0.027705923224810
5 0.0
6 0.0
7 0.0
8 0.0
9 0.0
10 -0.027705923224810
11 0.0
12 0.0
13 0.0
14 0.0
15 0.0
16 0.0
17 -0.23940065297579
18 0.0
19 0.0
20 -0.83600700362666
21 0.0
22 0.0
23 1.15633090277825
24 0.0
25 0.0
26 0.0
27 0.0
28 0.0
29 0.0
30 -0.008395931756751
31 0.0
 Sym=      4.3
 Ene=       1.1114
 Spin= Alpha
 Occup=    0.000000
1 -0.019633787599240
2 -0.34715744010471
3 -0.80113409657947
4 0.0
5 0.17438966069085
6 0.14573686334810
7 0.019633787599240
8 0.34715744010471
9 0.80113409657947
10 0.0
11 0.17438966069085
12 -0.14573686334810
13 0.0
14 0.0
15 0.0
16 0.0
17 0.0
18 -0.24104373427080
19 0.0
20 0.0
21 -0.70500311944941
22 0.0
23 0.0
24 1.80249133122241
25 0.0
26 0.0
27 0.0
28 0.0
29 0.0
30 0.0
31 0.031834559174993
 Sym=      7.1
 Ene=       1.3105
 Spin= Alpha
 Occup=    0.000000
1 0.008823186045631
2 -0.88715979872757
3 -0.35674458014588
4 0.0
5 0.18388185082550
6 0.36902248123628
7 0.008823186045631
8 -0.88715979872757
9 -0.35674458014588
10 0.0
11 -0.18388185082550
12 0.36902248123628
13 0.099742145072608
14 0.20421057613640
15 -1.48624428731640
16 3.19029304144232
17 0.0
18 0.0
19 -0.028033522890719
20 0.0
21 0.0
22 0.17804708217320
23 0.0
24 0.0
25 0.58780945490497
26 -0.035644145685881
27 0.007509475665966
28 0.028134670019915
29 0.0
30 0.0
31 0.0
 Sym=      8.1
 Ene=       1.4982
 Spin= Alpha
 Occup=    0.000000
1 -0.084222988453461
2 1.20386967688530
3 -0.029170803822542
4 0.0
5 -0.59810024210162
6 0.42787861659328
7 -0.084222988453461
8 1.20386967688530
9 -0.029170803822542
10 0.0
11 0.59810024210162
12 0.42787861659328
13 -0.033436841517598
14 -0.069325661952848
15 0.58498109672192
16 -2.05780702000839
17 0.0
18 0.0
19 -0.014848576956857
20 0.0
21 0.0
22 -0.12068362221253
23 0.0
24 0.0
25 -1.24349563022004
26 -0.008602047310697
27 -0.10786020876654
28 0.11646225607724
29 0.0
30 0.0
31 0.0
 Sym=      1.4
 Ene=       1.5159
 Spin= Alpha
 Occup=    0.000000
1 0.0
2 0.0
3 0.0
4 0.68970716834369
5 0.0
6 0.0
7 0.0
8 0.0
9 0.0
10 -0.68970716834369
11 0.0
12 0.0
13 0.0
14 0.0
15 0.0
16 0.0
17 0.0
18 0.0
19 0.0
20 0.0
21 0.0
22 0.0
23 0.0
24 0.0
25 0.0
26 0.0
27 0.0
28 0.0
29 0.12196125098230
30 0.0
31 0.0
 Sym=      3.2
 Ene=       1.7269
 Spin= Alpha
 Occup=    0.000000
1 0.0
2 0.0
3 0.0
4 0.77200362771499
5 0.0
6 0.0
7 0.0
8 0.0
9 0.0
10 0.77200362771499
11 0.0
12 0.0
13 0.0
14 0.0
15 0.0
16 0.0
17 -0.052895703417700
18 0.0
19 0.0
20 -0.075165965317278
21 0.0
22 0.0
23 -0.55154597637383
24 0.0
25 0.0
26 0.0
27 0.0
28 0.0
29 0.0
30 0.14547253122766
31 0.0
 Sym=      5.3
 Ene=       1.9304
 Spin= Alpha
 Occup=    0.000000
1 -0.19090961983371
2 0.78720678566401
3 -0.16050066193521
4 0.0
5 0.48082209125275
6 -0.65140223431652
7 0.19090961983371
8 -0.78720678566401
9 0.16050066193521
10 0.0
11 0.48082209125275
12 0.65140223431652
13 0.0
14 0.0
15 0.0
16 0.0
17 0.0
18 0.015159019202059
19 0.0
20 0.0
21 0.027440639432245
22 0.0
23 0.0
24 -0.94917660046320
25 0.0
26 0.0
27 0.0
28 0.0
29 0.0
30 0.0
31 -0.079138359453429
 Sym=      6.3
 Ene=       2.2775
 Spin= Alpha
 Occup=    0.000000
1 0.71315266540058
2 -0.74249272367584
3 0.54210956348069
4 0.0
5 -0.24920981570918
6 -0.46723897518690
7 -0.71315266540058
8 0.74249272367584
9 -0.54210956348069
10 0.0
11 -0.24920981570918
12 0.46723897518690
13 0.0
14 0.0
15 0.0
16 0.0
17 0.0
18 -0.17652922962544
19 0.0
20 0.0
21 -0.46802229893056
22 0.0
23 0.0
24 0.027122640920988
25 0.0
26 0.0
27 0.0
28 0.0
29 0.0
30 0.0
31 0.25259645075231
 Sym=      9.1
 Ene=       2.3979
 Spin= Alpha
 Occup=    0.000000
1 0.94232356003872
2 -1.34183671309370
3 0.43146919392099
4 0.0
5 -0.17345350946229
6 -0.033163394633829
7 0.94232356003872
8 -1.34183671309370
9 0.43146919392099
10 0.0
11 0.17345350946229
12 -0.033163394633829
13 0.024145682109839
14 0.042089242320626
15 -0.14352309778948
16 0.41808816108006
17 0.0
18 0.0
19 -0.16064776783851
20 0.0
21 0.0
22 -0.15931421950679
23 0.0
24 0.0
25 0.32975142666026
26 -0.29203657340037
27 0.21558750661616
28 0.076449066784214
29 0.0
30 0.0
31 0.0
 Sym=     10.1
 Ene=       2.6102
 Spin= Alpha
 Occup=    0.000000
1 0.43167029347480
2 -1.90342340928352
3 0.21676432614512
4 0.0
5 0.96209371910368
6 0.67890030176963
7 0.43167029347480
8 -1.90342340928352
9 0.21676432614512
10 0.0
11 -0.96209371910368
12 0.67890030176963
13 -0.060073606853987
14 -0.14044317658932
15 1.00828689722822
16 1.83750120266329
17 0.0
18 0.0
19 0.039618021342941
20 0.0
21 0.0
22 0.72087245074180
23 0.0
24 0.0
25 0.73333198572256
26 0.051514589906280
27 -0.004265454382473
28 -0.047249135523807
29 0.0
30 0.0
31 0.0
 Sym=      7.3
 Ene=       2.7685
 Spin= Alpha
 Occup=    0.000000
1 -0.72892178197990
2 2.13095565863133
3 -0.50209738650059
4 0.0
5 -0.95024429528451
6 -0.68788961684443
7 0.72892178197990
8 -2.13095565863133
9 0.50209738650059
10 0.0
11 -0.95024429528451
12 0.68788961684443
13 0.0
14 0.0
15 0.0
16 0.0
17 0.0
18 -0.015072534459694
19 0.0
20 0.0
21 -0.97024644156296
22 0.0
23 0.0
24 -0.73230690197523
25 0.0
26 0.0
27 0.0
28 0.0
29 0.0
30 0.0
31 -0.23827577558702
 Sym=      4.2
 Ene=       3.5053
 Spin= Alpha
 Occup=    0.000000
1 0.0
2 0.0
3 0.0
4 -0.36683801689666
5 0.0
6 0.0
7 0.0
8 0.0
9 0.0
10 -0.36683801689666
11 0.0
12 0.0
13 0.0
14 0.0
15 0.0
16 0.0
17 0.023843960686591
18 0.0
19 0.0
20 -0.009419983711549
21 0.0
22 0.0
23 0.27523012713991
24 0.0
25 0.0
26 0.0
27 0.0
28 0.0
29 0.0
30 1.03733686038057
31 0.0
 Sym=      2.4
 Ene=       3.5721
 Spin= Alpha
 Occup=    0.000000
1 0.0
2 0.0
3 0.0
4 -0.35117596383623
5 0.0
6 0.0
7 0.0
8 0.0
9 0.0
10 0.35117596383623
11 0.0
12 0.0
13 0.0
14 0.0
15 0.0
16 0.0
17 0.0
18 0.0
19 0.0
20 0.0
21 0.0
22 0.0
23 0.0
24 0.0
25 0.0
26 0.0
27 0.0
28 0.0
29 1.06006482631285
30 0.0
31 0.0
 Sym=     11.1
 Ene=       3.7381
 Spin= Alpha
 Occup=    0.000000
1 -0.027082922342053
2 -0.57234239108524
3 0.028385279497347
4 0.0
5 0.42413032088531
6 -0.23274540055173
7 -0.027082922342053
8 -0.57234239108524
9 0.028385279497347
10 0.0
11 -0.42413032088531
12 -0.23274540055173
13 -0.002617686695786
14 -0.005333988353422
15 -0.029349072006771
16 0.86146097306246
17 0.0
18 0.0
19 0.059059428173675
20 0.0
21 0.0
22 0.050537148677685
23 0.0
24 0.0
25 0.67660957647364
26 -0.47285462252997
27 -0.61061773119445
28 1.08347235372442
29 0.0
30 0.0
31 0.0
 Sym=     12.1
 Ene=       4.0353
 Spin= Alpha
 Occup=    0.000000
1 0.35224866043414
2 1.03747926688492
3 0.059507226473560
4 0.0
5 -0.56005830301682
6 -0.48259669512948
7 0.35224866043414
8 1.03747926688492
9 0.059507226473560
10 0.0
11 0.56005830301682
12 -0.48259669512948
13 0.024613691887470
14 0.049670160084852
15 -0.18782957596874
16 -2.00080180845166
17 0.0
18 0.0
19 -0.31727566154543
20 0.0
21 0.0
22 -0.13208395331284
23 0.0
24 0.0
25 -0.89592252843006
26 0.99799025263834
27 -0.94979695717179
28 -0.048193295466549
29 0.0
30 0.0
31 0.0
 Sym=      8.3
 Ene=       4.2823
 Spin= Alpha
 Occup=    0.000000
1 -0.44147742324946
2 -0.48386930712033
3 -0.24465245971845
4 0.0
5 0.46732023711419
6 0.33994859871899
7 0.44147742324946
8 0.48386930712033
9 0.24465245971845
10 0.0
11 0.46732023711419
12 -0.33994859871899
13 0.0
14 0.0
15 0.0
16 0.0
17 0.0
18 0.46764952037555
19 0.0
20 0.0
21 -0.028051942861487
22 0.0
23 0.0
24 0.92184902528608
25 0.0
26 0.0
27 0.0
28 0.0
29 0.0
30 0.0
31 1.14893938386072
 Sym=      5.2
 Ene=       5.3305
 Spin= Alpha
 Occup=    0.000000
1 0.0
2 0.0
3 0.0
4 0.065955680004974
5 0.0
6 0.0
7 0.0
8 0.0
9 0.0
10 0.065955680004974
11 0.0
12 0.0
13 0.0
14 0.0
15 0.0
16 0.0
17 1.27075925693280
18 0.0
19 0.0
20 -1.37564984686608
21 0.0
22 0.0
23 0.47597942040444
24 0.0
25 0.0
26 0.0
27 0.0
28 0.0
29 0.0
30 -0.033345469771621
31 0.0
 Sym=     13.1
 Ene=       5.7620
 Spin= Alpha
 Occup=    0.000000
1 0.30701877687633
2 0.52193497592844
3 0.014886471699886
4 0.0
5 -0.48404224093428
6 -0.26710649766530
7 0.30701877687633
8 0.52193497592844
9 0.014886471699886
10 0.0
11 0.48404224093428
12 -0.26710649766530
13 0.024084719346400
14 0.045614669550442
15 -0.26313777384979
16 -1.05995182306616
17 0.0
18 0.0
19 1.25924842800630
20 0.0
21 0.0
22 -1.73379563229040
23 0.0
24 0.0
25 0.078068943182665
26 0.37370847144476
27 -0.27604904586242
28 -0.097659425582347
29 0.0
30 0.0
31 0.0
 Sym=      9.3
 Ene=       6.2580
 Spin= Alpha
 Occup=    0.000000
1 -0.39809667070614
2 -0.51208352887296
3 0.14557793155662
4 0.0
5 0.54698640211161
6 0.47657309430851
7 0.39809667070614
8 0.51208352887296
9 -0.14557793155662
10 0.0
11 0.54698640211161
12 -0.47657309430851
13 0.0
14 0.0
15 0.0
16 0.0
17 0.0
18 -1.25457966074624
19 0.0
20 0.0
21 2.05654225594138
22 0.0
23 0.0
24 -0.13086034887250
25 0.0
26 0.0
27 0.0
28 0.0
29 0.0
30 0.0
31 0.67850248353262
 Sym=     14.1
 Ene=      51.5750
 Spin= Alpha
 Occup=    0.000000
1 0.008747272299975
2 0.077727412469208
3 -0.031125747579307
4 0.0
5 -0.065696708415903
6 -0.048152985592213
7 0.008747272299975
8 0.077727412469208
9 -0.031125747579307
10 0.0
11 0.065696708415903
12 -0.048152985592213
13 -2.24731788770016
14 2.33737785386779
15 -0.27406502204835
16 0.056461737358524
17 0.0
18 0.0
19 0.019340033399523
20 0.0
21 0.0
22 -0.077190071078419
23 0.0
24 0.0
25 -0.015742057268803
26 0.026082170833925
27 -0.022712278822500
28 -0.003369892011425
29 0.0
30 0.0
31 0.0
 [FREQ]
      0.00
      0.00
      0.00
      0.00
      0.00
      0.00
   1750.94
   4142.11
   4237.38
 [FR-COORD]
H          0.0000000000        1.4150757927        0.9562908687
O          0.0000000000        0.0000000000       -0.1205100679
H          0.0000000000       -1.4150757927        0.9562908687
 [FR-NORM-COORD]
 Vibration                    1
          0.00000000         -0.38090176          0.43226005
          0.12612020         -0.03177470         -0.02654458
          0.00000000         -0.38090176         -0.48534920
 Vibration                    2
          0.00000000          0.05242945          0.24708463
          0.07364917          0.07972996          0.21120773
          0.00000000          0.05242945          0.17533082
 Vibration                    3
          0.88897626         -0.00000000         -0.00000000
         -0.00000000         -0.00000000         -0.00000000
          0.44939621         -0.00000000         -0.00000000
 Vibration                    4
         -0.44939621         -0.00000000         -0.00000000
         -0.00000000         -0.00000000         -0.00000000
          0.88897626         -0.00000000         -0.00000000
 Vibration                    5
          0.00000000          0.23803758         -0.26556359
          0.17445696          0.10686985         -0.09318978
          0.00000000          0.23803758          0.07918404
 Vibration                    6
         -0.00000000         -0.02556076          0.25442928
         -0.10370224          0.19776625         -0.03905546
          0.00000000         -0.02556076         -0.33254020
 Vibration                    7
          0.00000000         -0.41344571          0.53738997
         -0.00000000         -0.00000000         -0.06772092
         -0.00000000          0.41344571          0.53738997
 Vibration                    8
         -0.00000000          0.57024602          0.38962407
          0.00000000         -0.00000000         -0.04909973
         -0.00000000         -0.57024602          0.38962407
 Vibration                    9
          0.00000000          0.53941416          0.41046683
          0.00000000         -0.06797601          0.00000000
          0.00000000          0.53941416         -0.41046683
