[Molden Format]
[Molpro variables]
_NUMVAR=  1041.000000000000    
_AVOGAD= 0.6022140760000000E+24
_BOLTZ= 0.1380649000000000E-22
_CLIGHTSI=  299792458.0000000    
_JOULE= 0.4359744722207100E-17
_JPCAL=  4.184000000000000    
_PLANCK= 0.6626070150000000E-33
_BOHR= 0.5291772109030000E-10
_ECHARG= 0.1602176634000000E-18
_ENULL= 0.8854187812800001E-11
_MU= 0.1660539066600000E-26
_EMASS= 0.9109383701500001E-30
_AMU2AU=  1822.888486217313    
_CLIGHT=  29979245800.00000    
_EV= 0.3674932217565494E-01
_KJOULE= 0.3808798847133432E-03
_KJOULE/MOL= 0.3808798847133432E-03
_CM= 0.4556335252912009E-05
_CM-1= 0.4556335252912009E-05
_DEB2SI= 0.3335640951981520E-29
_KCAL= 0.1593601437640628E-02
_KCAL/MOL= 0.1593601437640628E-02
_KELVIN= 0.3166811563455608E-05
_HERTZ= 0.1519829846057038E-15
_HZ= 0.1519829846057038E-15
_TOA= 0.5291772109030000    
_TOANG= 0.5291772109030000    
_TORAD= 0.1745329251994330E-01
_TOCM=  219474.6313631965    
_TODEBYE=  2.541746473194078    
_TOE= 0.4803204712570263E-09
_TOEV=  27.21138624598803    
_TOHERTZ=  6579683920501656.    
_TOHZ=  6579683920501656.    
_TOK=  315775.0248040668    
_TOKCAL=  627.5094740630558    
_TOKELVIN=  315775.0248040668    
_TOKJ=  2625.499639479825    
_TOKJOULE=  2625.499639479825    
_TOKG= 0.1660539066600000E-26
_ANG=  1.889726124625770    
_ANGSTROM=  1.889726124625770    
_RPAREF=  0.000000000000000    
_RPADISS=  0.000000000000000    
_IGNORE_UNDEF=  2.000000000000000    
_STRICTCHECK=  0.000000000000000    
!SEWARD=  0.000000000000000    
!MULTI=  0.000000000000000    
!DFMULTI=  0.000000000000000    
_SEW_ONEEL=  0.000000000000000    
_CPPDONE=FALSE
_DKROLL_DONE=  0.000000000000000    
_FNUC_DONE=  0.000000000000000    
_FOCKDONE=TRUE
_GRADONE=FALSE
_HESSDONE=TRUE
_INTDONE=TRUE
_SCFDONE=TRUE
_MODUL_BLOCK=FALSE
_MODUL_SLATER=FALSE
_MODUL_MRCC=FALSE
_MODUL_NBO6=FALSE
_MODUL_NECI=FALSE
_MODUL_AIMS=TRUE
_MODUL_HDF5=FALSE
_MODUL_GECCO=FALSE
_ISWINDOWS=FALSE
_MRCC_EXEC=
_FITC_AO_SAVED=FALSE
_FITC_MO_SAVED=FALSE
_SHARED_FS=TRUE
_LSTYP=SEWARD
_INTYP=INTS
_GEOMTYP=ZMAT
_GRADTYP=ALASKA
_DIRECT=FALSE
_DKHO= -1.000000000000000    
_FNUC=  0.000000000000000    
_SYNCM=  0.000000000000000    
_BASIS=6-311G(D,P)
_ZCENTRE=MASS
_ZORIENT=  1.000000000000000    
_CHARGE= -1.000000000000000    
_NELEC=  30.00000000000000    
!SPIN=  0.000000000000000    
_OPTCONV= 0.2153926887238493E-03
_QSDSTEP=  0.000000000000000    
_QSDIRC=  0.000000000000000    
_PROGRAM=FREQ
_CPUSTEP=  33.51000000000001    
_SYSSTEP= 0.3100000000000001    
_WALLSTEP=  9.220000000000001    
!DFSCF=  0.000000000000000    
!SCSGRD=  0.000000000000000    
_NCEN=  3.000000000000000    
_CPUTOT=  55.34000000000000    
_DFTEXFAC=  1.000000000000000    
_DMX=  0.000000000000000    
_DMY=  0.000000000000000    
_DMZ=-0.3340469119611260    
_DMX_SCF=  0.000000000000000    
_DMY_SCF=  0.000000000000000    
_DMZ_SCF=-0.3340469119611260    
_FREQUENCIES= 0.3573468549942137E-04
_HOMO=  3.300000000000000    
_EHOMO=-0.1361853225572723    
_LUMO=  10.10000000000000    
_ELUMO= 0.3568851243264888    
_ENERGY= -489.9214479380827    
_ENERGY_METHOD=HF
_ENERGY_BASIS=6-311G(D,P)
_GEOMETRY_METHOD=HF
_GEOMETRY_BASIS=6-311G(D,P)
_ENUC=  70.43502599875620    
_GRADENERG= -489.9214479263372    
_GRADEXFAC=  9999.000000000000    
_GRADMETHOD=  1.000000000000000    
_NMRMETHOD=  0.000000000000000    
_NMRMAGNET=  0.000000000000000    
_VIRIAL= 0.1812000821217085E-03
!GRID_FREEZE= -1.000000000000000    
!NEESE_INDEX=  0.000000000000000    
_ITERATIONS=  2.000000000000000    
_LASTNELEC=  30.00000000000000    
_LASTSPIN=  0.000000000000000    
_LASTSYM=  1.000000000000000    
_MPP_PROG=  1.000000000000000    
_MSNSTATES=  0.000000000000000    
_RS2PHASE=  0.000000000000000    
_IPROC_MPP=  0.000000000000000    
_IPROC_MPPX=  0.000000000000000    
_NPROC_MPP=  4.000000000000000    
_NPROC_MPPX=  4.000000000000000    
_NPROC_SMP=  8.000000000000000    
_NUMSTEP=  0.000000000000000    
_OPTCONVMX= 0.1970941744304788E-03
_OPTCONVRMS= 0.1243570268162240E-03
_OPTGRAD= 0.1459612085785545E-03
_OPTGRADMX= 0.1324034388272809E-03
_OPTGRADRMS= 0.3649030214463862E-04
_OPTSTEP=  5.000000000000000    
_ORBITAL=  2100.200000000000    
_PI=  3.141592653589793    
_SEIG_MIN= 0.4086184661968141E-02
_SEWPROP=TRUE
_STATUS=  1.000000000000000    
_SYSTOT= 0.9300000000000000    
_VERSION=  2022003.000000000    
_WALLTOT=  16.30000000000000    
_ZPE= 0.9495656049677750E-02
_DATE=06-Aug-25
_LASTORB=0
_OUTPUT=/home/zwa/Overlap_Integral_Project/overlap_integral_gaussian/molpro_files/thiocynate/thio.out
_PGROUP=C2v
_TIME=13:02:49
_LIBMOL=/usr/local/molpro/molpro_2022.3.0_sockets/lib/
_VIGRDC=  0.000000000000000    
!VIBCNT=  0.000000000000000    
!RGHFCNT=  0.000000000000000    
!SURFREC=  0.000000000000000    
!XSURFREC=  0.000000000000000    
!XPOLYREC=  0.000000000000000    
!ROTREC=  0.000000000000000    
!POLYREC=  0.000000000000000    
!DIPREC=  0.000000000000000    
!DIP4DREC=  0.000000000000000    
!DIPROT=  0.000000000000000    
!DIP4DROT=  0.000000000000000    
!PTREC=  0.000000000000000    
!PT4DREC=  0.000000000000000    
!VSCFREC=  0.000000000000000    
!VCIREC=  0.000000000000000    
!PVCIREC=  0.000000000000000    
!VMP2REC=  0.000000000000000    
!VMCSCFREC=  0.000000000000000    
!VMRCIREC=  0.000000000000000    
!VIBSTATEREC=  0.000000000000000    
!VIBSTATECNT=  0.000000000000000    
!VIBINFO=  0.000000000000000    
!GAREC=  0.000000000000000    
!SCFORB=  21002.00000000000    
!DEFCORE=  5.000000000000000    
!SCORE=  1.000000000000000    
!NEWMOL=  0.000000000000000    
!NEWSYM=  0.000000000000000    
_SLFILES=slscratch
_NGSSTO=  9.000000000000000    
_SIN=SIN
_COS=COS
_TAN=TAN
_ACOS=ACOS
_ASIN=ASIN
_ATAN=ATAN
_COSH=COSH
_SINH=SINH
_TANH=TANH
_ABS=ABS
_MOD=MOD
_ERF=ERF
_REFC=REFC
_ERFC=ERFC
_HYPOT=HYPOT
_J0=J0
_J1=J1
_JN=JN
_GAMMA=GAMMA
_LGAMMA=LGAMMA
_Y0=Y0
_Y1=Y1
_YN=YN
_EXP=EXP
_LOG=LOG
_LOG10=LOG10
_SQRT=SQRT
_INT=INT
_NINT=NINT
_MAX=MAX
_MIN=MIN
_COSMO=  0.000000000000000    
_COSMOIT=  0.000000000000000    
_COSMOES=  0.000000000000000    
_COSMOEDS=  0.000000000000000    
_COSMOEC=  0.000000000000000    
_COSMOEDCORR=  0.000000000000000    
_FEPSI=  1.000000000000000    
_SL_IsMM=  0.000000000000000    
_SL_NSYM=  4.000000000000000    
_SL_System_BitSw=  0.000000000000000    
_SL_Unique_atoms=  0.000000000000000    
_SL_GRAD=  0.000000000000000    
_SL_MAXUPD_Hess=  5.000000000000000    
_SL_N_PRINT_COD=  5.000000000000000    
_SL_PRINT_CODES=  0.000000000000000    
_SL_BasType=  0.000000000000000    
_SL_Energy_Pred=  0.000000000000000    
_SL_New_Coords=  0.000000000000000    
_SL_Total_Nuclea=  0.000000000000000    
_SL_Highest_Mltp=  0.000000000000000    
_SL_Ref_Geom=  0.000000000000000    
_SL_Symmetry_ope=  1.000000000000000    
_SL_agrad=  0.000000000000000    
_SL_GrdMax=  0.000000000000000    
_SL_GrdNorm=  0.000000000000000    
_SL_GrdRMS=  0.000000000000000    
_SL_Hss_Q=  0.000000000000000    
_SL_Hss_X=  0.000000000000000    
_SL_BMxOld=  0.000000000000000    
_SL_KtB=  0.000000000000000    
_SL_TROld=  0.000000000000000    
_SL_No_of_Intern=  0.000000000000000    
_SL_Hess=  0.000000000000000    
_SL_K=  0.000000000000000    
!LATTICE= -1.000000000000000    
!NEWLATTICE=  0.000000000000000    
!LATGRAD_VAR=FALSE
!SEW_LATTICE=  1.000000000000000    
!AIC_ONEEL=  0.000000000000000    
!LOCAL=  0.000000000000000    
!SAVEDOM= -1.000000000000000    
!RESTDOM= -1.000000000000000    
!SAVEDOM_HF= -1.000000000000000    
!RESTDOM_HF= -1.000000000000000    
!HESSREC=  5300.200000000000    
!FREQREC=  5400.200000000000    
!NMODREC=  5450.200000000000    
!GTASKS=  0.000000000000000    
!HTASKS=  0.000000000000000    
!SAVEDOM_EOM= -1.000000000000000    
!RESTDOM_EOM= -1.000000000000000    
!GRADSTATE= -1.000000000000000    
!DEBUG=  0.000000000000000    
!CFIT_CPHF=  0.000000000000000    
!RDOMAUX_CPHF=  0.000000000000000    
!THRAO_CPHF= 0.1000000000000000E-11
!THRMO_CPHF= 0.1000000000000000E-11
!THROV_CPHF= 0.1000000000000000E-11
!THRSW_CPHF= 0.1000000000000000E-11
!THRPROD_CPHF= 0.1000000000000000E-11
!THRAOPR_CPHF= 0.1000000000000000E-11
!CFIT_SCFGRD=  0.000000000000000    
!RDOMAUX_SCFGRD=  0.000000000000000    
!THRAO_SCFGRD= 0.1000000000000000E-11
!THRMO_SCFGRD= 0.1000000000000000E-11
!THROV_SCFGRD= 0.1000000000000000E-11
!THRSW_SCFGRD= 0.1000000000000000E-11
!THRPROD_SCFGRD= 0.1000000000000000E-11
!THRAOPR_SCFGRD= 0.1000000000000000E-11
!LOCFIT_SCF=  0.000000000000000    
!LOCFIT_MP2=  0.000000000000000    
_RIDOM=  0.000000000000000    
!CC2_METHOD=  0.000000000000000    
_BASIS2006=FALSE
_SVDDEL= -1.000000000000000    
_SVDDELA= -1.000000000000000    
_SVDDELP= -1.000000000000000    
_SVDDELF= -1.000000000000000    
_SVDDELS= -1.000000000000000    
_SVDDEL_ABS= -1.000000000000000    
_SVDDELA_ABS= -1.000000000000000    
_SVDDELP_ABS= -1.000000000000000    
_SVDDELF_ABS= -1.000000000000000    
_SVDDELS_ABS= -1.000000000000000    
_MAXBASIS=  0.000000000000000    
!OPT_CONICAL=  0.000000000000000    
!CLEARSP_JGRID=  0.000000000000000    
_GRDHYBR=  0.000000000000000    
_STATEGRAD=  1.000000000000000    
_4EXT_NDISKS=  1.000000000000000    
!EMBEDFLAG=  1.000000000000000    
!EMBED=FALSE
!EMBED_F12=FALSE
!EMBEDNUC=  0.000000000000000    
_EMBEDENERGY=  0.000000000000000    
!EMBED_DFC=FALSE
!NUM_VOIDS=  0.000000000000000    
_IBODY=  0.000000000000000    
_EMBE_CORR=  0.000000000000000    
!EMBED_PROJ=FALSE
!EMB_PROJ_ZMU=  1000000.000000000    
!CORRECTION_HF=  0.000000000000000    
!EMBED_AORB=  0.000000000000000    
!EMBED_NACORR=  0.000000000000000    
!EMBED_MP2=FALSE
!EMBED_TRUNC_PERTURBATION=FALSE
!EMBED_FROZEN=  0.000000000000000    
!EMBED_ACTIVE=  0.000000000000000    
_CHANGE_BASIS=FALSE
_RESTORE_BASIS=FALSE
_FIX_EMBED_GUESS=FALSE
_EMBED_SCF=FALSE
_HUZINAGA_T=FALSE
_HUZINAGA_F=FALSE
_HUZINAGA=FALSE
_HUZINAGA_CORRECT=FALSE
!FASTLATGRAD=  1.000000000000000    
!FASTVLAMBDA= -1.000000000000000    
!IFORCE= -1.000000000000000    
!USESYM= -1.000000000000000    
_SINDEX=  0.000000000000000    
_AVDOM_OSV=  0.000000000000000    
_AVDOM_PNO=  0.000000000000000    
_AVDOM_PAO=  0.000000000000000    
_AVDOM_LMO=  0.000000000000000    
_CC2OSV_FLAG=  0.000000000000000    
_EOMCCSD_CONV=FALSE
_TMADC2_FLAG=FALSE
_PROPADC2_FLAG=FALSE
_LEN_VirQ=  0.000000000000000    
_GRDCC2LR_FLAG=FALSE
_GRDADC2_FLAG=FALSE
_RO_VGLOBAL=  0.000000000000000    
_OPT=FALSE
_FREQ=FALSE
_HESS=FALSE
_CMRCC_callName=EMPTY
_CMRCC_callCount=  0.000000000000000    
_GECCO_CIROOT=  1.000000000000000    
_SYM_CATION=  3.000000000000000    
_MON_A=FALSE
_MON_B=FALSE
GX1= -0.000000000000000    
GY1= -0.000000000000000    
GZ1= 0.6558213941636860    
GX2= -0.000000000000000    
GY2= -0.000000000000000    
GZ2= -1.033928006092772    
GX3= -0.000000000000000    
GY3= -0.000000000000000    
GZ3=  1.798674280410959    
CX1=  0.000000000000000    
CY1=  0.000000000000000    
CZ1=  1.239322821639612    
SX2=  0.000000000000000    
SY2=  0.000000000000000    
SZ2= -1.953840764095743    
NX3=  0.000000000000000    
NY3=  0.000000000000000    
NZ3=  3.399001777385048    
[Atoms] Angs
C     1    6         0.0000000000        0.0000000000        0.6558213942
S     2   16         0.0000000000        0.0000000000       -1.0339280061
N     3    7         0.0000000000        0.0000000000        1.7986742804
[GTO]
   1 0
 s    6  1.00
  0.4563240000D+04  0.1966650249D-02
  0.6820240000D+03  0.1523060193D-01
  0.1549730000D+03  0.7612690966D-01
  0.4445530000D+02  0.2608010331D+00
  0.1302900000D+02  0.6164620782D+00
  0.1827730000D+01  0.2210060280D+00
 s    3  1.00
  0.2096420000D+02  0.1146600807D+00
  0.4803310000D+01  0.9199996477D+00
  0.1459330000D+01 -0.3030682134D-02
 s    1  1.00
  0.4834560000D+00  0.1000000000D+01
 s    1  1.00
  0.1455850000D+00  0.1000000000D+01
 p    3  1.00
  0.2096420000D+02  0.4024869267D-01
  0.4803310000D+01  0.2375939567D+00
  0.1459330000D+01  0.8158538515D+00
 p    1  1.00
  0.4834560000D+00  0.1000000000D+01
 p    1  1.00
  0.1455850000D+00  0.1000000000D+01
 d    1  1.00
  0.6260000000D+00  0.1000000000D+01
  
   2 0
 s    6  1.00
  0.9341340000D+05  0.7429999567D-03
  0.1396170000D+05  0.5792999662D-02
  0.3169910000D+04  0.2995399825D-01
  0.9024560000D+03  0.1190279931D+00
  0.2971580000D+03  0.3684319785D+00
  0.1087020000D+03  0.5772989663D+00
 s    3  1.00
  0.1087020000D+03  0.1431860600D+00
  0.4315530000D+02  0.6244652619D+00
  0.1810790000D+02  0.2833661188D+00
 s    1  1.00
  0.5560090000D+01  0.1000000000D+01
 s    1  1.00
  0.2131830000D+01  0.1000000000D+01
 s    1  1.00
  0.4204030000D+00  0.1000000000D+01
 s    1  1.00
  0.1360450000D+00  0.1000000000D+01
 p    4  1.00
  0.4950400000D+03  0.8309002513D-02
  0.1172210000D+03  0.6402401937D-01
  0.3777490000D+02  0.2776140840D+00
  0.1405840000D+02  0.7450762254D+00
 p    2  1.00
  0.5565740000D+01  0.6137116720D+00
  0.2262970000D+01  0.4438177628D+00
 p    1  1.00
  0.8079940000D+00  0.1000000000D+01
 p    1  1.00
  0.2774600000D+00  0.1000000000D+01
 p    1  1.00
  0.7714100000D-01  0.1000000000D+01
 d    1  1.00
  0.6500000000D+00  0.1000000000D+01
  
   3 0
 s    6  1.00
  0.6293480000D+04  0.1969788147D-02
  0.9490440000D+03  0.1496128592D-01
  0.2187760000D+03  0.7350053084D-01
  0.6369160000D+02  0.2489367658D+00
  0.1882820000D+02  0.6024594331D+00
  0.2720230000D+01  0.2562017589D+00
 s    3  1.00
  0.3063310000D+02  0.1119060795D+00
  0.7026140000D+01  0.9216666549D+00
  0.2112050000D+01 -0.2569191826D-02
 s    1  1.00
  0.6840090000D+00  0.1000000000D+01
 s    1  1.00
  0.2008780000D+00  0.1000000000D+01
 p    3  1.00
  0.3063310000D+02  0.3831191864D-01
  0.7026140000D+01  0.2374031155D+00
  0.2112050000D+01  0.8175923978D+00
 p    1  1.00
  0.6840090000D+00  0.1000000000D+01
 p    1  1.00
  0.2008780000D+00  0.1000000000D+01
 d    1  1.00
  0.9130000000D+00  0.1000000000D+01


[MO]
 Sym=      1.1
 Ene=     -91.7244
 Spin= Alpha
 Occup=    2.000000
1 -0.000002059445016
2 0.000008218644896
3 -0.000002467168534
4 0.000156157251498
5 0.0
6 0.0
7 -0.000018375132442
8 0.0
9 0.0
10 0.000067787504928
11 0.0
12 0.0
13 0.000100032435424
14 0.000017801955878
15 0.000017801955878
16 -0.000035603911756
17 0.0
18 0.0
19 0.0
20 0.41105598498465
21 0.65497864788589
22 0.012227106854435
23 -0.001386453284273
24 0.000396375631300
25 -0.000149286298590
26 0.0
27 0.0
28 0.000116541295607
29 0.0
30 0.0
31 -0.000041624073520
32 0.0
33 0.0
34 0.000015480077518
35 0.0
36 0.0
37 0.000045848814612
38 0.0
39 0.0
40 -0.000036173347033
41 -0.000013190963951
42 -0.000013190963951
43 0.000026381927901
44 0.0
45 0.0
46 0.0
47 0.000001383525629
48 -0.000004877129336
49 0.000037417425361
50 -0.000196847963369
51 0.0
52 0.0
53 -0.000003939088240
54 0.0
55 0.0
56 0.000004425823685
57 0.0
58 0.0
59 0.000070880347630
60 0.000002118555870
61 0.000002118555870
62 -0.000004237111740
63 0.0
64 0.0
65 0.0
 Sym=      2.1
 Ene=     -15.3376
 Spin= Alpha
 Occup=    2.000000
1 0.000093827288956
2 -0.000027740323995
3 0.000441185787376
4 0.000455974507570
5 0.0
6 0.0
7 0.000235371926686
8 0.0
9 0.0
10 0.000181528988164
11 0.0
12 0.0
13 0.000872897223333
14 -0.000020077764143
15 -0.000020077764143
16 0.000040155528286
17 0.0
18 0.0
19 0.0
20 -0.000000157755976
21 -0.000001243043621
22 0.000006654430951
23 -0.000009033215752
24 0.000018962123322
25 0.000380614411478
26 0.0
27 0.0
28 -0.000000262570961
29 0.0
30 0.0
31 0.000015533745368
32 0.0
33 0.0
34 -0.000056255961386
35 0.0
36 0.0
37 0.000188891906646
38 0.0
39 0.0
40 0.000052509604851
41 -0.000003850554619
42 -0.000003850554619
43 0.000007701109238
44 0.0
45 0.0
46 0.0
47 0.55767830025233
48 0.46832252701712
49 0.004662284081590
50 -0.001090448966678
51 0.0
52 0.0
53 -0.001864921676759
54 0.0
55 0.0
56 0.000377795758299
57 0.0
58 0.0
59 0.000117825881177
60 -0.000219596490636
61 -0.000219596490636
62 0.000439192981271
63 0.0
64 0.0
65 0.0
 Sym=      3.1
 Ene=     -11.0802
 Spin= Alpha
 Occup=    2.000000
1 0.56323762624595
2 0.46658365532436
3 0.004330103801087
4 0.001246976465939
5 0.0
6 0.0
7 -0.000605173904887
8 0.0
9 0.0
10 0.001422960742139
11 0.0
12 0.0
13 0.000284116580823
14 -0.000701432505565
15 -0.000701432505565
16 0.001402865011130
17 0.0
18 0.0
19 0.0
20 -0.000003103831467
21 -0.000004808419983
22 -0.000013103738560
23 0.000019101776604
24 0.000061260331043
25 -0.000108589004175
26 0.0
27 0.0
28 -0.000021709644968
29 0.0
30 0.0
31 -0.000046382837615
32 0.0
33 0.0
34 0.000122857574115
35 0.0
36 0.0
37 -0.000065472749410
38 0.0
39 0.0
40 -0.000009200235605
41 0.000026767514292
42 0.000026767514292
43 -0.000053535028585
44 0.0
45 0.0
46 0.0
47 -0.000509131705035
48 -0.000533299665571
49 0.000043161738013
50 -0.001256076580151
51 0.0
52 0.0
53 -0.000407705607210
54 0.0
55 0.0
56 0.000133193729378
57 0.0
58 0.0
59 0.000501024121787
60 -0.000067191502676
61 -0.000067191502676
62 0.000134383005353
63 0.0
64 0.0
65 0.0
 Sym=      4.1
 Ene=      -8.7265
 Spin= Alpha
 Occup=    2.000000
1 -0.000125151911490
2 -0.000014917785831
3 0.000476448572757
4 0.006995027552364
5 0.0
6 0.0
7 -0.000637664596400
8 0.0
9 0.0
10 0.002867349674322
11 0.0
12 0.0
13 0.005143565441091
14 0.000319408901911
15 0.000319408901911
16 -0.000638817803822
17 0.0
18 0.0
19 0.0
20 -0.11974370821941
21 -0.32487606978812
22 0.53289995275547
23 0.58695195342909
24 0.036478453160237
25 -0.006608931992376
26 0.0
27 0.0
28 0.001701321168492
29 0.0
30 0.0
31 0.004712049854274
32 0.0
33 0.0
34 0.000327814009342
35 0.0
36 0.0
37 0.002629363338860
38 0.0
39 0.0
40 -0.001541873011192
41 -0.000572990887096
42 -0.000572990887096
43 0.001145981774193
44 0.0
45 0.0
46 0.0
47 0.000002522279789
48 -0.000060605344329
49 0.001013120464847
50 -0.009166814019656
51 0.0
52 0.0
53 -0.000174353902627
54 0.0
55 0.0
56 0.000811386520618
57 0.0
58 0.0
59 0.002996350177223
60 0.000190259813737
61 0.000190259813737
62 -0.000380519627474
63 0.0
64 0.0
65 0.0
 Sym=      5.1
 Ene=      -6.4098
 Spin= Alpha
 Occup=    2.000000
1 -0.000180598791186
2 -0.000148665126278
3 0.000362323483778
4 -0.000482107266941
5 0.0
6 0.0
7 -0.000366341222165
8 0.0
9 0.0
10 -0.000372807511824
11 0.0
12 0.0
13 -0.002326534972860
14 0.000178335357255
15 0.000178335357255
16 -0.000356670714510
17 0.0
18 0.0
19 0.0
20 0.000841174592188
21 0.002335369859462
22 -0.004727983290123
23 -0.003231269510733
24 0.001301582043568
25 -0.001646601458505
26 0.0
27 0.0
28 0.37494091668809
29 0.0
30 0.0
31 0.71479924284936
32 0.0
33 0.0
34 0.048314021550592
35 0.0
36 0.0
37 -0.003976152360740
38 0.0
39 0.0
40 0.000802085207105
41 -0.000372492524269
42 -0.000372492524269
43 0.000744985048538
44 0.0
45 0.0
46 0.0
47 0.000004633854659
48 -0.000002942752301
49 0.000028541809338
50 0.002038745758485
51 0.0
52 0.0
53 0.000045378412475
54 0.0
55 0.0
56 -0.000295284311612
57 0.0
58 0.0
59 -0.000306364560673
60 -0.000041488387347
61 -0.000041488387347
62 0.000082976774694
63 0.0
64 0.0
65 0.0
 Sym=      1.3
 Ene=      -6.4065
 Spin= Alpha
 Occup=    2.000000
1 0.0
2 0.0
3 0.0
4 0.0
5 0.0
6 0.000013318530019
7 0.0
8 0.0
9 0.000153033242309
10 0.0
11 0.0
12 -0.000123580176439
13 0.0
14 0.0
15 0.0
16 0.0
17 0.0
18 0.0
19 -0.000014643181887
20 0.0
21 0.0
22 0.0
23 0.0
24 0.0
25 0.0
26 0.0
27 0.37598989516141
28 0.0
29 0.0
30 0.71515999594920
31 0.0
32 0.0
33 0.045583349808895
34 0.0
35 0.0
36 -0.002685723535654
37 0.0
38 0.0
39 0.000898596838063
40 0.0
41 0.0
42 0.0
43 0.0
44 0.0
45 0.0
46 0.000476829725970
47 0.0
48 0.0
49 0.0
50 0.0
51 0.0
52 0.000005750068945
53 0.0
54 0.0
55 0.000013702434087
56 0.0
57 0.0
58 -0.000031297591491
59 0.0
60 0.0
61 0.0
62 0.0
63 0.0
64 0.0
65 0.000019985955697
 Sym=      1.2
 Ene=      -6.4065
 Spin= Alpha
 Occup=    2.000000
1 0.0
2 0.0
3 0.0
4 0.0
5 0.000013318530019
6 0.0
7 0.0
8 0.000153033242309
9 0.0
10 0.0
11 -0.000123580176439
12 0.0
13 0.0
14 0.0
15 0.0
16 0.0
17 0.0
18 -0.000014643181887
19 0.0
20 0.0
21 0.0
22 0.0
23 0.0
24 0.0
25 0.0
26 0.37598989516141
27 0.0
28 0.0
29 0.71515999594920
30 0.0
31 0.0
32 0.045583349808895
33 0.0
34 0.0
35 -0.002685723535654
36 0.0
37 0.0
38 0.000898596838063
39 0.0
40 0.0
41 0.0
42 0.0
43 0.0
44 0.0
45 0.000476829725970
46 0.0
47 0.0
48 0.0
49 0.0
50 0.0
51 0.000005750068945
52 0.0
53 0.0
54 0.000013702434087
55 0.0
56 0.0
57 -0.000031297591491
58 0.0
59 0.0
60 0.0
61 0.0
62 0.0
63 0.0
64 0.000019985955697
65 0.0
 Sym=      6.1
 Ene=      -1.0178
 Spin= Alpha
 Occup=    2.000000
1 -0.082074148451883
2 -0.13265443054527
3 0.32641410996433
4 0.077132084893417
5 0.0
6 0.0
7 0.10046806551562
8 0.0
9 0.0
10 0.10549316940224
11 0.0
12 0.0
13 -0.042573745907906
14 -0.015671549182206
15 -0.015671549182206
16 0.031343098364411
17 0.0
18 0.0
19 0.0
20 0.003424697910719
21 0.009877969374423
22 -0.020716227048594
23 -0.036790564719916
24 0.064469594254346
25 0.000759034259127
26 0.0
27 0.0
28 -0.005750024536676
29 0.0
30 0.0
31 -0.012085000211495
32 0.0
33 0.0
34 0.017610808249879
35 0.0
36 0.0
37 0.005969577685627
38 0.0
39 0.0
40 -0.006163838287926
41 -0.002570353495937
42 -0.002570353495937
43 0.005140706991874
44 0.0
45 0.0
46 0.0
47 -0.095415227183320
48 -0.15724197766123
49 0.40337751790157
50 0.32416895755533
51 0.0
52 0.0
53 -0.088063572942060
54 0.0
55 0.0
56 -0.12593229316377
57 0.0
58 0.0
59 -0.058848333921115
60 -0.013855275531512
61 -0.013855275531512
62 0.027710551063025
63 0.0
64 0.0
65 0.0
 Sym=      7.1
 Ene=      -0.7607
 Spin= Alpha
 Occup=    2.000000
1 -0.035117941630680
2 -0.061030916131629
3 0.16903582957377
4 0.099783368868513
5 0.0
6 0.0
7 -0.10990265819901
8 0.0
9 0.0
10 -0.17953045203206
11 0.0
12 0.0
13 -0.054449616713561
14 -0.012039592866908
15 -0.012039592866907
16 0.024079185733815
17 0.0
18 0.0
19 0.0
20 0.027898477089986
21 0.080399955957865
22 -0.16849777348608
23 -0.31045430420351
24 0.54272615276731
25 0.33830043727958
26 0.0
27 0.0
28 -0.021287786266335
29 0.0
30 0.0
31 -0.044613745857612
32 0.0
33 0.0
34 0.057195263964623
35 0.0
36 0.0
37 0.077374350870885
38 0.0
39 0.0
40 -0.004243686068245
41 -0.016964883491376
42 -0.016964883491375
43 0.033929766982751
44 0.0
45 0.0
46 0.0
47 0.030052825489939
48 0.050533854796920
49 -0.14191611811145
50 -0.081467859213846
51 0.0
52 0.0
53 0.017500892381119
54 0.0
55 0.0
56 0.024981509739596
57 0.0
58 0.0
59 -0.006482058064822
60 0.003723108908186
61 0.003723108908185
62 -0.007446217816371
63 0.0
64 0.0
65 0.0
 Sym=      8.1
 Ene=      -0.4026
 Spin= Alpha
 Occup=    2.000000
1 -0.065231204284661
2 -0.11137450594538
3 0.30341151925749
4 0.21702917496117
5 0.0
6 0.0
7 -0.026779842684753
8 0.0
9 0.0
10 -0.072416824818031
11 0.0
12 0.0
13 -0.17026477950291
14 -0.008685873972784
15 -0.008685873972784
16 0.017371747945568
17 0.0
18 0.0
19 0.0
20 -0.015238234849491
21 -0.044284886270021
22 0.096180266503147
23 0.16808514679571
24 -0.28490553942678
25 -0.45346919308728
26 0.0
27 0.0
28 -0.045303155088685
29 0.0
30 0.0
31 -0.092663488626216
32 0.0
33 0.0
34 0.13202684223146
35 0.0
36 0.0
37 0.19212640626232
38 0.0
39 0.0
40 0.026297128781983
41 -0.019733270088791
42 -0.019733270088790
43 0.039466540177581
44 0.0
45 0.0
46 0.0
47 0.052505411351544
48 0.088926164027074
49 -0.25934210990757
50 -0.22205472098445
51 0.0
52 0.0
53 -0.12458531828782
54 0.0
55 0.0
56 -0.18118473401493
57 0.0
58 0.0
59 -0.19228854358957
60 -0.006579585133684
61 -0.006579585133685
62 0.013159170267370
63 0.0
64 0.0
65 0.0
 Sym=      9.1
 Ene=      -0.3312
 Spin= Alpha
 Occup=    2.000000
1 0.001005926625009
2 -0.001059294116820
3 0.009886103104879
4 0.20712246039180
5 0.0
6 0.0
7 -0.15765109924824
8 0.0
9 0.0
10 -0.23437756458625
11 0.0
12 0.0
13 -0.033410640269557
14 -0.004449400652304
15 -0.004449400652303
16 0.008898801304607
17 0.0
18 0.0
19 0.0
20 -0.009207556091912
21 -0.026904684469939
22 0.059694676107206
23 0.098975534953441
24 -0.16155436026616
25 -0.28050938613675
26 0.0
27 0.0
28 -0.048734624819093
29 0.0
30 0.0
31 -0.098995345479762
32 0.0
33 0.0
34 0.13589840290573
35 0.0
36 0.0
37 0.25081211209684
38 0.0
39 0.0
40 0.060337753618586
41 -0.023032521313482
42 -0.023032521313482
43 0.046065042626963
44 0.0
45 0.0
46 0.0
47 -0.033983832867896
48 -0.057147292812930
49 0.16396841494456
50 0.22087055560335
51 0.0
52 0.0
53 0.19285520827307
54 0.0
55 0.0
56 0.27703309014962
57 0.0
58 0.0
59 0.26514265437999
60 0.013062060141070
61 0.013062060141070
62 -0.026124120282139
63 0.0
64 0.0
65 0.0
 Sym=      2.3
 Ene=      -0.3050
 Spin= Alpha
 Occup=    2.000000
1 0.0
2 0.0
3 0.0
4 0.0
5 0.0
6 0.16549065711670
7 0.0
8 0.0
9 0.26999214754161
10 0.0
11 0.0
12 0.21192624857476
13 0.0
14 0.0
15 0.0
16 0.0
17 0.0
18 0.0
19 0.021287175470438
20 0.0
21 0.0
22 0.0
23 0.0
24 0.0
25 0.0
26 0.0
27 -0.033177366950449
28 0.0
29 0.0
30 -0.066721834653712
31 0.0
32 0.0
33 0.091228874379183
34 0.0
35 0.0
36 0.18720059214511
37 0.0
38 0.0
39 0.072719890383624
40 0.0
41 0.0
42 0.0
43 0.0
44 0.0
45 0.0
46 0.029296021659544
47 0.0
48 0.0
49 0.0
50 0.0
51 0.0
52 0.16916509171665
53 0.0
54 0.0
55 0.27054955545271
56 0.0
57 0.0
58 0.22237719177451
59 0.0
60 0.0
61 0.0
62 0.0
63 0.0
64 0.0
65 -0.035079609609638
 Sym=      2.2
 Ene=      -0.3050
 Spin= Alpha
 Occup=    2.000000
1 0.0
2 0.0
3 0.0
4 0.0
5 0.16549065711670
6 0.0
7 0.0
8 0.26999214754161
9 0.0
10 0.0
11 0.21192624857475
12 0.0
13 0.0
14 0.0
15 0.0
16 0.0
17 0.0
18 0.021287175470438
19 0.0
20 0.0
21 0.0
22 0.0
23 0.0
24 0.0
25 0.0
26 -0.033177366950449
27 0.0
28 0.0
29 -0.066721834653713
30 0.0
31 0.0
32 0.091228874379185
33 0.0
34 0.0
35 0.18720059214511
36 0.0
37 0.0
38 0.072719890383627
39 0.0
40 0.0
41 0.0
42 0.0
43 0.0
44 0.0
45 0.029296021659544
46 0.0
47 0.0
48 0.0
49 0.0
50 0.0
51 0.16916509171665
52 0.0
53 0.0
54 0.27054955545271
55 0.0
56 0.0
57 0.22237719177451
58 0.0
59 0.0
60 0.0
61 0.0
62 0.0
63 0.0
64 -0.035079609609638
65 0.0
 Sym=      3.2
 Ene=      -0.1362
 Spin= Alpha
 Occup=    2.000000
1 0.0
2 0.0
3 0.0
4 0.0
5 -0.037780108093513
6 0.0
7 0.0
8 -0.045497150263867
9 0.0
10 0.0
11 -0.058987997494783
12 0.0
13 0.0
14 0.0
15 0.0
16 0.0
17 0.0
18 -0.048560363072905
19 0.0
20 0.0
21 0.0
22 0.0
23 0.0
24 0.0
25 0.0
26 -0.084569848389837
27 0.0
28 0.0
29 -0.16836438937820
30 0.0
31 0.0
32 0.22929731717889
33 0.0
34 0.0
35 0.53495038739088
36 0.0
37 0.0
38 0.34256711009058
39 0.0
40 0.0
41 0.0
42 0.0
43 0.0
44 0.0
45 0.011135958845568
46 0.0
47 0.0
48 0.0
49 0.0
50 0.0
51 -0.11338217373392
52 0.0
53 0.0
54 -0.16596646946761
55 0.0
56 0.0
57 -0.20957015454207
58 0.0
59 0.0
60 0.0
61 0.0
62 0.0
63 0.0
64 0.012644695393343
65 0.0
 Sym=      3.3
 Ene=      -0.1362
 Spin= Alpha
 Occup=    2.000000
1 0.0
2 0.0
3 0.0
4 0.0
5 0.0
6 -0.037780108093512
7 0.0
8 0.0
9 -0.045497150263868
10 0.0
11 0.0
12 -0.058987997494781
13 0.0
14 0.0
15 0.0
16 0.0
17 0.0
18 0.0
19 -0.048560363072904
20 0.0
21 0.0
22 0.0
23 0.0
24 0.0
25 0.0
26 0.0
27 -0.084569848389837
28 0.0
29 0.0
30 -0.16836438937820
31 0.0
32 0.0
33 0.22929731717889
34 0.0
35 0.0
36 0.53495038739089
37 0.0
38 0.0
39 0.34256711009057
40 0.0
41 0.0
42 0.0
43 0.0
44 0.0
45 0.0
46 0.011135958845568
47 0.0
48 0.0
49 0.0
50 0.0
51 0.0
52 -0.11338217373392
53 0.0
54 0.0
55 -0.16596646946761
56 0.0
57 0.0
58 -0.20957015454207
59 0.0
60 0.0
61 0.0
62 0.0
63 0.0
64 0.0
65 0.012644695393343
 Sym=     10.1
 Ene=       0.3569
 Spin= Alpha
 Occup=    0.000000
1 0.033906758691555
2 0.056267409551619
3 -0.057220621448359
4 -1.68284241483226
5 0.0
6 0.0
7 0.081837027855585
8 0.0
9 0.0
10 0.060609609874582
11 0.0
12 0.0
13 0.62499305080085
14 0.015009562228984
15 0.015009562228984
16 -0.030019124457967
17 0.0
18 0.0
19 0.0
20 0.008687727595795
21 0.025706594723039
22 -0.059790699819953
23 -0.087266808538173
24 0.064908350818481
25 1.15114752937289
26 0.0
27 0.0
28 -0.012341004105302
29 0.0
30 0.0
31 -0.026828336312336
32 0.0
33 0.0
34 0.041338989698079
35 0.0
36 0.0
37 0.095640816906301
38 0.0
39 0.0
40 1.62846231668334
41 0.036272476292279
42 0.036272476292280
43 -0.072544952584559
44 0.0
45 0.0
46 0.0
47 -0.003564713528310
48 -0.008119495661331
49 0.045680827340235
50 -0.053828364444378
51 0.0
52 0.0
53 -0.030478814608223
54 0.0
55 0.0
56 -0.071372385909094
57 0.0
58 0.0
59 -0.13931923854135
60 -0.006969536266063
61 -0.006969536266064
62 0.013939072532127
63 0.0
64 0.0
65 0.0
 Sym=      4.3
 Ene=       0.4139
 Spin= Alpha
 Occup=    0.000000
1 0.0
2 0.0
3 0.0
4 0.0
5 0.0
6 -0.16487204051175
7 0.0
8 0.0
9 -0.23891002614430
10 0.0
11 0.0
12 -0.95852169902074
13 0.0
14 0.0
15 0.0
16 0.0
17 0.0
18 0.0
19 0.051914775654516
20 0.0
21 0.0
22 0.0
23 0.0
24 0.0
25 0.0
26 0.0
27 -0.000756658391410
28 0.0
29 0.0
30 -0.005970952145653
31 0.0
32 0.0
33 0.034984698744585
34 0.0
35 0.0
36 -0.12518813491270
37 0.0
38 0.0
39 0.80332997496282
40 0.0
41 0.0
42 0.0
43 0.0
44 0.0
45 0.0
46 -0.10914530639765
47 0.0
48 0.0
49 0.0
50 0.0
51 0.0
52 0.15625598553653
53 0.0
54 0.0
55 0.17594896115898
56 0.0
57 0.0
58 0.71450001053878
59 0.0
60 0.0
61 0.0
62 0.0
63 0.0
64 0.0
65 0.014625684654947
 Sym=      4.2
 Ene=       0.4139
 Spin= Alpha
 Occup=    0.000000
1 0.0
2 0.0
3 0.0
4 0.0
5 -0.16487204051175
6 0.0
7 0.0
8 -0.23891002614432
9 0.0
10 0.0
11 -0.95852169902072
12 0.0
13 0.0
14 0.0
15 0.0
16 0.0
17 0.0
18 0.051914775654516
19 0.0
20 0.0
21 0.0
22 0.0
23 0.0
24 0.0
25 0.0
26 -0.000756658391410
27 0.0
28 0.0
29 -0.005970952145653
30 0.0
31 0.0
32 0.034984698744581
33 0.0
34 0.0
35 -0.12518813491269
36 0.0
37 0.0
38 0.80332997496280
39 0.0
40 0.0
41 0.0
42 0.0
43 0.0
44 0.0
45 -0.10914530639766
46 0.0
47 0.0
48 0.0
49 0.0
50 0.0
51 0.15625598553653
52 0.0
53 0.0
54 0.17594896115898
55 0.0
56 0.0
57 0.71450001053877
58 0.0
59 0.0
60 0.0
61 0.0
62 0.0
63 0.0
64 0.014625684654947
65 0.0
 Sym=     11.1
 Ene=       0.4856
 Spin= Alpha
 Occup=    0.000000
1 -0.017321220598274
2 -0.034027661981987
3 0.094838727801020
4 2.52736417561368
5 0.0
6 0.0
7 -0.058400905070195
8 0.0
9 0.0
10 0.014950792990533
11 0.0
12 0.0
13 2.51861768910155
14 0.007208269681755
15 0.007208269681754
16 -0.014416539363509
17 0.0
18 0.0
19 0.0
20 -0.010521241836220
21 -0.029716572959259
22 0.057109076021872
23 0.15486178127490
24 -0.46253098269240
25 1.13126686278289
26 0.0
27 0.0
28 0.054121623517938
29 0.0
30 0.0